protein dna data file produced on: Thu Sep 28 00:02:23 2023

1854 atoms
1844 bonds
2416 angles
1844 dihedrals

34 atom types
2 bond types
18 angle types
2 dihedral types

-1000.000000 1000.000000 xlo xhi
-1000.000000 1000.000000 ylo yhi
-1000.000000 1000.000000 zlo zhi

Masses

   1   94.9696
   2   83.1104
   3  134.1220
   4  125.1078
   5  150.1214
   6  110.0964
   7  134.1220
   8  125.1078
   9  150.1214
  10  110.0964
  11  134.1220
  12  125.1078
  13  150.1214
  14  110.0964
  15   71.0788
  16  156.1875
  17  114.1038
  18  115.0886
  19  103.1388
  20  129.1155
  21  128.1307
  22   57.0519
  23  137.1411
  24  113.1594
  25  113.1594
  26  128.1741
  27  131.1926
  28  147.1766
  29   97.1167
  30   87.0782
  31  101.1051
  32  186.2132
  33  163.1760
  34   99.1326

Atoms

      1       1      15    0.0000 -3.183000e+01 -5.330000e+00 -6.630000e+00
      2       1      16    1.0000 -3.287000e+01 -2.020000e+00 -8.200000e+00
      3       1      31    0.0000 -3.136000e+01 -4.000000e-02 -1.109000e+01
      4       1      26    1.0000 -3.073000e+01  3.180000e+00 -9.190000e+00
      5       1      21    0.0000 -2.742000e+01  3.840000e+00 -7.430000e+00
      6       1      31    0.0000 -2.575000e+01  4.250000e+00 -1.080000e+01
      7       1      15    0.0000 -2.840000e+01  5.130000e+00 -1.338000e+01
      8       1      16    1.0000 -2.510000e+01  6.360000e+00 -1.477000e+01
      9       1      26    1.0000 -2.644000e+01  6.450000e+00 -1.833000e+01
     10       1      30    0.0000 -2.484000e+01  3.960000e+00 -2.072000e+01
     11       1      31    0.0000 -2.189000e+01  5.850000e+00 -2.218000e+01
     12       1      22    0.0000 -2.057000e+01  9.410000e+00 -2.225000e+01
     13       1      22    0.0000 -1.759000e+01  1.081000e+01 -2.040000e+01
     14       1      26    1.0000 -1.908000e+01  1.430000e+01 -2.052000e+01
     15       1      15    0.0000 -1.927000e+01  1.592000e+01 -1.708000e+01
     16       1      29    0.0000 -2.175000e+01  1.879000e+01 -1.772000e+01
     17       1      16    1.0000 -2.430000e+01  1.602000e+01 -1.826000e+01
     18       1      26    1.0000 -2.786000e+01  1.595000e+01 -1.961000e+01
     19       1      21    0.0000 -2.869000e+01  1.966000e+01 -1.920000e+01
     20       1      25    0.0000 -2.690000e+01  2.269000e+01 -2.068000e+01
     21       1      15    0.0000 -2.319000e+01  2.343000e+01 -2.021000e+01
     22       1      31    0.0000 -2.054000e+01  2.164000e+01 -2.226000e+01
     23       1      26    1.0000 -1.708000e+01  2.218000e+01 -2.077000e+01
     24       1      15    0.0000 -1.394000e+01  2.005000e+01 -2.111000e+01
     25       1      15    0.0000 -1.443000e+01  1.855000e+01 -1.766000e+01
     26       1      16    1.0000 -1.391000e+01  1.484000e+01 -1.701000e+01
     27       1      26    1.0000 -1.222000e+01  1.389000e+01 -1.372000e+01
     28       1      30    0.0000 -9.440000e+00  1.635000e+01 -1.291000e+01
     29       1      15    0.0000 -9.690000e+00  2.010000e+01 -1.233000e+01
     30       1      29    0.0000 -1.232000e+01  2.196000e+01 -1.440000e+01
     31       1      15    0.0000 -1.142000e+01  2.498000e+01 -1.226000e+01
     32       1      31    0.0000 -8.090000e+00  2.682000e+01 -1.218000e+01
     33       1      22    0.0000 -5.660000e+00  2.619000e+01 -9.340000e+00
     34       1      22    0.0000 -4.740000e+00  2.285000e+01 -7.800000e+00
     35       1      34    0.0000 -4.820000e+00  1.916000e+01 -8.700000e+00
     36       1      26    1.0000 -4.710000e+00  1.670000e+01 -5.730000e+00
     37       1      26    1.0000 -1.270000e+00  1.506000e+01 -5.840000e+00
     38       1      29    0.0000 -4.100000e-01  1.469000e+01 -9.550000e+00
     39       1      23    0.0000  1.770000e+00  1.176000e+01 -1.058000e+01
     40       1      16    1.0000  5.530000e+00  1.193000e+01 -1.004000e+01
     41       1      33    0.0000  8.230000e+00  9.300000e+00 -1.053000e+01
     42       1      16    1.0000  1.092000e+01  9.360000e+00 -7.840000e+00
     43       1      29    0.0000  1.431000e+01  1.101000e+01 -8.530000e+00
     44       1      22    0.0000  1.637000e+01  8.340000e+00 -1.027000e+01
     45       1      31    0.0000  1.351000e+01  6.350000e+00 -1.176000e+01
     46       1      34    0.0000  1.349000e+01  8.320000e+00 -1.500000e+01
     47       1      15    0.0000  1.730000e+01  8.550000e+00 -1.511000e+01
     48       1      25    0.0000  1.735000e+01  4.710000e+00 -1.501000e+01
     49       1      16    1.0000  1.469000e+01  4.560000e+00 -1.773000e+01
     50       1      20   -1.0000  1.688000e+01  6.830000e+00 -1.992000e+01
     51       1      24    0.0000  2.000000e+01  4.730000e+00 -1.934000e+01
     52       1      16    1.0000  1.805000e+01  1.670000e+00 -2.053000e+01
     53       1      16    1.0000  1.660000e+01  3.540000e+00 -2.353000e+01
     54       1      33    0.0000  1.995000e+01  4.880000e+00 -2.472000e+01
     55       1      21    0.0000  2.194000e+01  1.720000e+00 -2.411000e+01
     56       1      26    1.0000  1.951000e+01 -8.000000e-02 -2.635000e+01
     57       1      30    0.0000  1.977000e+01  2.350000e+00 -2.928000e+01
     58       1      31    0.0000  2.267000e+01  3.400000e+00 -3.150000e+01
     59       1      20   -1.0000  2.155000e+01  6.780000e+00 -3.285000e+01
     60       1      25    0.0000  2.391000e+01  9.720000e+00 -3.248000e+01
     61       1      25    0.0000  2.302000e+01  1.179000e+01 -2.941000e+01
     62       1      24    0.0000  2.445000e+01  1.523000e+01 -3.020000e+01
     63       1      16    1.0000  2.246000e+01  1.731000e+01 -3.276000e+01
     64       1      26    1.0000  2.392000e+01  1.721000e+01 -3.627000e+01
     65       1      25    0.0000  2.404000e+01  2.091000e+01 -3.718000e+01
     66       1      29    0.0000  2.548000e+01  2.217000e+01 -3.391000e+01
     67       1      28    0.0000  2.815000e+01  1.945000e+01 -3.418000e+01
     68       1      21    0.0000  2.895000e+01  2.029000e+01 -3.777000e+01
     69       1      16    1.0000  2.941000e+01  2.393000e+01 -3.676000e+01
     70       1      25    0.0000  3.181000e+01  2.303000e+01 -3.398000e+01
     71       1      34    0.0000  3.390000e+01  2.088000e+01 -3.632000e+01
     72       1      16    1.0000  3.414000e+01  2.358000e+01 -3.902000e+01
     73       1      20   -1.0000  3.508000e+01  2.618000e+01 -3.642000e+01
     74       1      24    0.0000  3.787000e+01  2.403000e+01 -3.498000e+01
     75       1      15    0.0000  3.922000e+01  2.315000e+01 -3.844000e+01
     76       1      21    0.0000  3.924000e+01  2.683000e+01 -3.951000e+01
     77       1      18   -1.0000  4.192000e+01  2.732000e+01 -3.683000e+01
     78       1      28    0.0000  4.426000e+01  2.496000e+01 -3.869000e+01
     79       1      26    1.0000  4.341000e+01  2.577000e+01 -4.230000e+01
     80       1      31    0.0000  4.092000e+01  2.832000e+01 -4.362000e+01
     81       1      18   -1.0000  3.840000e+01  2.776000e+01 -4.638000e+01
     82       1      25    0.0000  3.811000e+01  2.402000e+01 -4.600000e+01
     83       1      16    1.0000  3.519000e+01  2.198000e+01 -4.721000e+01
     84       1      28    0.0000  3.416000e+01  1.865000e+01 -4.560000e+01
     85       1      21    0.0000  3.274000e+01  1.552000e+01 -4.715000e+01
     86       1      30    0.0000  2.947000e+01  1.480000e+01 -4.530000e+01
     87       1      30    0.0000  3.089000e+01  1.141000e+01 -4.420000e+01
     88       1      15    0.0000  3.398000e+01  1.318000e+01 -4.273000e+01
     89       1      34    0.0000  3.175000e+01  1.505000e+01 -4.035000e+01
     90       1      27    0.0000  2.977000e+01  1.190000e+01 -3.958000e+01
     91       1      15    0.0000  3.299000e+01  9.940000e+00 -3.892000e+01
     92       1      25    0.0000  3.407000e+01  1.265000e+01 -3.648000e+01
     93       1      21    0.0000  3.070000e+01  1.256000e+01 -3.473000e+01
     94       1      20   -1.0000  3.065000e+01  8.750000e+00 -3.447000e+01
     95       1      15    0.0000  3.420000e+01  8.840000e+00 -3.304000e+01
     96       1      30    0.0000  3.350000e+01  1.176000e+01 -3.067000e+01
     97       1      20   -1.0000  3.035000e+01  1.023000e+01 -2.927000e+01
     98       1      15    0.0000  3.193000e+01  6.800000e+00 -2.880000e+01
     99       1      33    0.0000  3.484000e+01  8.520000e+00 -2.702000e+01
    100       1      25    0.0000  3.256000e+01  1.048000e+01 -2.469000e+01
    101       1      34    0.0000  3.030000e+01  7.580000e+00 -2.388000e+01
    102       1      15    0.0000  3.329000e+01  5.360000e+00 -2.297000e+01
    103       1      25    0.0000  3.476000e+01  8.220000e+00 -2.092000e+01
    104       1      28    0.0000  3.146000e+01  8.550000e+00 -1.902000e+01
    105       1      20   -1.0000  3.159000e+01  4.830000e+00 -1.823000e+01
    106       1      18   -1.0000  3.508000e+01  5.340000e+00 -1.668000e+01
    107       1      31    0.0000  3.400000e+01  8.570000e+00 -1.496000e+01
    108       1      17    0.0000  3.106000e+01  6.610000e+00 -1.346000e+01
    109       1      25    0.0000  3.340000e+01  3.950000e+00 -1.208000e+01
    110       1      19    0.0000  3.544000e+01  6.770000e+00 -1.045000e+01
    111       1      15    0.0000  3.232000e+01  8.280000e+00 -8.810000e+00
    112       1      24    0.0000  3.124000e+01  4.910000e+00 -7.480000e+00
    113       1      23    0.0000  3.479000e+01  4.300000e+00 -6.250000e+00
    114       1      15    0.0000  3.435000e+01  7.390000e+00 -4.070000e+00
    115       1      26    1.0000  3.101000e+01  6.030000e+00 -2.790000e+00
    116       1      16    1.0000  2.899000e+01  8.500000e+00 -4.860000e+00
    117       1      34    0.0000  2.639000e+01  8.000000e+00 -7.580000e+00
    118       1      31    0.0000  2.681000e+01  1.151000e+01 -8.960000e+00
    119       1      24    0.0000  2.960000e+01  1.209000e+01 -1.147000e+01
    120       1      27    0.0000  3.171000e+01  1.516000e+01 -1.090000e+01
    121       1      29    0.0000  3.452000e+01  1.695000e+01 -1.280000e+01
    122       1      26    1.0000  3.711000e+01  1.533000e+01 -1.051000e+01
    123       1      18   -1.0000  3.585000e+01  1.194000e+01 -1.173000e+01
    124       1      24    0.0000  3.633000e+01  1.290000e+01 -1.537000e+01
    125       1      21    0.0000  3.977000e+01  1.429000e+01 -1.447000e+01
    126       1      25    0.0000  4.083000e+01  1.116000e+01 -1.263000e+01
    127       1      15    0.0000  3.973000e+01  8.950000e+00 -1.552000e+01
    128       1      16    1.0000  4.160000e+01  1.105000e+01 -1.808000e+01
    129       1      16    1.0000  4.475000e+01  1.114000e+01 -1.594000e+01
    130       1      24    0.0000  4.479000e+01  7.340000e+00 -1.556000e+01
    131       1      16    1.0000  4.409000e+01  6.880000e+00 -1.925000e+01
    132       1      22    0.0000  4.716000e+01  8.980000e+00 -1.999000e+01
    133       1      20   -1.0000  4.514000e+01  1.174000e+01 -2.164000e+01
    134       1      16    1.0000  4.595000e+01  1.430000e+01 -1.894000e+01
    135       1      15    0.0000  4.899000e+01  1.243000e+01 -1.771000e+01
    136       2      30    0.0000  7.850000e+00  4.557000e+01 -2.269000e+01
    137       2      22    0.0000  9.730000e+00  4.373000e+01 -1.997000e+01
    138       2      16    1.0000  6.930000e+00  4.143000e+01 -1.882000e+01
    139       2      22    0.0000  7.140000e+00  3.816000e+01 -1.693000e+01
    140       2      26    1.0000  1.011000e+01  3.648000e+01 -1.530000e+01
    141       2      22    0.0000  9.480000e+00  3.302000e+01 -1.668000e+01
    142       2      22    0.0000  6.090000e+00  3.178000e+01 -1.782000e+01
    143       2      26    1.0000  3.420000e+00  3.248000e+01 -2.043000e+01
    144       2      22    0.0000  3.240000e+00  3.597000e+01 -2.192000e+01
    145       2      25    0.0000  5.780000e+00  3.712000e+01 -2.451000e+01
    146       2      22    0.0000  9.330000e+00  3.843000e+01 -2.441000e+01
    147       2      26    1.0000  9.810000e+00  3.670000e+01 -2.106000e+01
    148       2      22    0.0000  1.295000e+01  3.470000e+01 -2.030000e+01
    149       2      22    0.0000  1.413000e+01  3.237000e+01 -2.304000e+01
    150       2      15    0.0000  1.360000e+01  3.448000e+01 -2.614000e+01
    151       2      26    1.0000  1.668000e+01  3.467000e+01 -2.837000e+01
    152       2      16    1.0000  1.657000e+01  3.483000e+01 -3.217000e+01
    153       2      23    0.0000  1.969000e+01  3.432000e+01 -3.427000e+01
    154       2      16    1.0000  2.160000e+01  3.131000e+01 -3.550000e+01
    155       2      26    1.0000  2.534000e+01  3.131000e+01 -3.500000e+01
    156       2      34    0.0000  2.775000e+01  3.326000e+01 -3.716000e+01
    157       2      25    0.0000  2.973000e+01  3.352000e+01 -3.392000e+01
    158       2      16    1.0000  2.770000e+01  3.241000e+01 -3.089000e+01
    159       2      18   -1.0000  2.714000e+01  2.905000e+01 -2.915000e+01
    160       2      17    0.0000  2.911000e+01  2.652000e+01 -3.120000e+01
    161       2      24    0.0000  3.090000e+01  2.462000e+01 -2.841000e+01
    162       2      21    0.0000  2.805000e+01  2.599000e+01 -2.633000e+01
    163       2      22    0.0000  2.584000e+01  2.439000e+01 -2.893000e+01
    164       2      24    0.0000  2.665000e+01  2.094000e+01 -2.753000e+01
    165       2      31    0.0000  2.375000e+01  2.113000e+01 -2.512000e+01
    166       2      26    1.0000  2.328000e+01  2.002000e+01 -2.155000e+01
    167       2      29    0.0000  2.061000e+01  1.759000e+01 -2.283000e+01
    168       2      15    0.0000  2.288000e+01  1.601000e+01 -2.543000e+01
    169       2      24    0.0000  2.562000e+01  1.557000e+01 -2.279000e+01
    170       2      16    1.0000  2.311000e+01  1.402000e+01 -2.039000e+01
    171       2      16    1.0000  2.209000e+01  1.160000e+01 -2.315000e+01
    172       2      25    0.0000  2.573000e+01  1.065000e+01 -2.380000e+01
    173       2      15    0.0000  2.617000e+01  1.008000e+01 -2.007000e+01
    174       2      16    1.0000  2.303000e+01  7.880000e+00 -1.995000e+01
    175       2      16    1.0000  2.436000e+01  5.690000e+00 -2.273000e+01
    176       2      22    0.0000  2.752000e+01  5.580000e+00 -2.059000e+01
    177       2      22    0.0000  2.543000e+01  4.270000e+00 -1.764000e+01
    178       2      34    0.0000  2.544000e+01  7.460000e+00 -1.558000e+01
    179       2      26    1.0000  2.245000e+01  8.030000e+00 -1.323000e+01
    180       2      16    1.0000  2.321000e+01  1.138000e+01 -1.159000e+01
    181       2      24    0.0000  2.516000e+01  1.434000e+01 -1.292000e+01
    182       2      30    0.0000  2.686000e+01  1.729000e+01 -1.124000e+01
    183       2      22    0.0000  2.598000e+01  2.072000e+01 -1.258000e+01
    184       2      25    0.0000  2.964000e+01  2.131000e+01 -1.340000e+01
    185       2      24    0.0000  2.991000e+01  1.825000e+01 -1.567000e+01
    186       2      33    0.0000  2.853000e+01  2.005000e+01 -1.870000e+01
    187       2      20   -1.0000  3.126000e+01  2.262000e+01 -1.904000e+01
    188       2      20   -1.0000  3.384000e+01  2.001000e+01 -1.819000e+01
    189       2      31    0.0000  3.254000e+01  1.777000e+01 -2.097000e+01
    190       2      16    1.0000  3.262000e+01  2.059000e+01 -2.351000e+01
    191       2      22    0.0000  3.626000e+01  2.123000e+01 -2.265000e+01
    192       2      34    0.0000  3.715000e+01  1.758000e+01 -2.308000e+01
    193       2      25    0.0000  3.520000e+01  1.728000e+01 -2.631000e+01
    194       2      26    1.0000  3.692000e+01  2.036000e+01 -2.773000e+01
    195       2      34    0.0000  4.037000e+01  1.886000e+01 -2.695000e+01
    196       2      28    0.0000  3.941000e+01  1.557000e+01 -2.858000e+01
    197       2      25    0.0000  3.823000e+01  1.732000e+01 -3.176000e+01
    198       2      20   -1.0000  4.119000e+01  1.968000e+01 -3.188000e+01
    199       2      17    0.0000  4.347000e+01  1.663000e+01 -3.174000e+01
    200       2      34    0.0000  4.170000e+01  1.457000e+01 -3.433000e+01
    201       2      24    0.0000  4.093000e+01  1.749000e+01 -3.668000e+01
    202       2      16    1.0000  4.449000e+01  1.879000e+01 -3.651000e+01
    203       2      18   -1.0000  4.579000e+01  1.548000e+01 -3.789000e+01
    204       2      15    0.0000  4.300000e+01  1.508000e+01 -4.043000e+01
    205       2      34    0.0000  4.373000e+01  1.855000e+01 -4.181000e+01
    206       2      31    0.0000  4.745000e+01  1.763000e+01 -4.192000e+01
    207       2      33    0.0000  4.653000e+01  1.473000e+01 -4.419000e+01
    208       2      31    0.0000  4.424000e+01  1.702000e+01 -4.624000e+01
    209       2      20   -1.0000  4.702000e+01  1.954000e+01 -4.683000e+01
    210       2      23    0.0000  4.959000e+01  1.688000e+01 -4.763000e+01
    211       2      15    0.0000  4.724000e+01  1.567000e+01 -5.035000e+01
    212       2      26    1.0000  4.701000e+01  1.922000e+01 -5.167000e+01
    213       2      16    1.0000  4.322000e+01  1.906000e+01 -5.113000e+01
    214       2      26    1.0000  4.081000e+01  2.172000e+01 -4.994000e+01
    215       2      31    0.0000  3.824000e+01  1.916000e+01 -4.880000e+01
    216       2      34    0.0000  3.857000e+01  1.708000e+01 -4.558000e+01
    217       2      31    0.0000  3.761000e+01  1.352000e+01 -4.649000e+01
    218       2      15    0.0000  3.627000e+01  1.070000e+01 -4.438000e+01
    219       2      27    0.0000  3.960000e+01  8.890000e+00 -4.503000e+01
    220       2      18   -1.0000  4.156000e+01  1.188000e+01 -4.365000e+01
    221       2      34    0.0000  3.947000e+01  1.148000e+01 -4.049000e+01
    222       2      34    0.0000  3.983000e+01  7.660000e+00 -4.045000e+01
    223       2      33    0.0000  4.363000e+01  7.950000e+00 -4.075000e+01
    224       2      15    0.0000  4.379000e+01  1.065000e+01 -3.808000e+01
    225       2      25    0.0000  4.168000e+01  8.510000e+00 -3.572000e+01
    226       2      26    1.0000  4.380000e+01  5.430000e+00 -3.633000e+01
    227       2      16    1.0000  4.710000e+01  7.140000e+00 -3.552000e+01
    228       2      21    0.0000  4.553000e+01  8.510000e+00 -3.230000e+01
    229       2      22    0.0000  4.469000e+01  4.910000e+00 -3.128000e+01
    230       2      16    1.0000  4.098000e+01  5.290000e+00 -3.201000e+01
    231       2      31    0.0000  4.046000e+01  3.120000e+00 -3.512000e+01
    232       2      25    0.0000  3.697000e+01  3.640000e+00 -3.649000e+01
    233       2      33    0.0000  3.523000e+01  1.090000e+00 -3.872000e+01
    234       2      22    0.0000  3.250000e+01  1.980000e+00 -4.118000e+01
    235       2      28    0.0000  3.397000e+01  4.860000e+00 -4.315000e+01
    236       2      22    0.0000  3.655000e+01  3.390000e+00 -4.552000e+01
    237       2      22    0.0000  3.448000e+01  3.360000e+00 -4.869000e+01
    238       3      30    0.0000  7.815000e+01  1.445000e+01 -7.231000e+01
    239       3      22    0.0000  7.891000e+01  1.109000e+01 -7.388000e+01
    240       3      16    1.0000  8.092000e+01  8.890000e+00 -7.151000e+01
    241       3      22    0.0000  8.441000e+01  9.380000e+00 -7.292000e+01
    242       3      26    1.0000  8.657000e+01  1.061000e+01 -7.006000e+01
    243       3      21    0.0000  8.646000e+01  1.320000e+01 -6.728000e+01
    244       3      22    0.0000  8.893000e+01  1.514000e+01 -6.515000e+01
    245       3      22    0.0000  8.903000e+01  1.736000e+01 -6.209000e+01
    246       3      26    1.0000  8.717000e+01  1.728000e+01 -5.878000e+01
    247       3      31    0.0000  8.519000e+01  2.025000e+01 -5.750000e+01
    248       3      16    1.0000  8.182000e+01  1.869000e+01 -5.671000e+01
    249       3      15    0.0000  8.331000e+01  1.685000e+01 -5.375000e+01
    250       3      26    1.0000  8.485000e+01  1.336000e+01 -5.385000e+01
    251       3      15    0.0000  8.569000e+01  1.401000e+01 -5.021000e+01
    252       3      26    1.0000  8.246000e+01  1.589000e+01 -4.952000e+01
    253       3      31    0.0000  7.981000e+01  1.391000e+01 -4.766000e+01
    254       3      16    1.0000  7.614000e+01  1.463000e+01 -4.817000e+01
    255       3      30    0.0000  7.617000e+01  1.547000e+01 -4.445000e+01
    256       3      30    0.0000  7.875000e+01  1.826000e+01 -4.497000e+01
    257       3      16    1.0000  7.680000e+01  1.933000e+01 -4.803000e+01
    258       3      15    0.0000  7.361000e+01  1.964000e+01 -4.593000e+01
    259       3      22    0.0000  7.545000e+01  2.127000e+01 -4.299000e+01
    260       3      25    0.0000  7.480000e+01  1.830000e+01 -4.071000e+01
    261       3      21    0.0000  7.657000e+01  1.624000e+01 -3.808000e+01
    262       3      28    0.0000  7.426000e+01  1.320000e+01 -3.841000e+01
    263       3      29    0.0000  7.501000e+01  1.085000e+01 -4.137000e+01
    264       3      34    0.0000  7.290000e+01  1.148000e+01 -4.446000e+01
    265       3      22    0.0000  7.434000e+01  8.470000e+00 -4.626000e+01
    266       3      16    1.0000  7.346000e+01  6.080000e+00 -4.342000e+01
    267       3      34    0.0000  6.998000e+01  7.500000e+00 -4.299000e+01
    268       3      23    0.0000  6.940000e+01  7.060000e+00 -4.677000e+01
    269       3      16    1.0000  7.052000e+01  3.430000e+00 -4.659000e+01
    270       3      25    0.0000  6.841000e+01  2.670000e+00 -4.353000e+01
    271       3      25    0.0000  6.533000e+01  4.230000e+00 -4.522000e+01
    272       3      16    1.0000  6.591000e+01  1.950000e+00 -4.822000e+01
    273       3      26    1.0000  6.660000e+01 -1.130000e+00 -4.606000e+01
    274       3      22    0.0000  6.340000e+01 -7.200000e-01 -4.403000e+01
    275       3      17    0.0000  6.085000e+01 -1.190000e+00 -4.681000e+01
    276       3      33    0.0000  5.907000e+01  2.070000e+00 -4.627000e+01
    277       3      15    0.0000  5.846000e+01  2.770000e+00 -4.998000e+01
    278       3      20   -1.0000  5.966000e+01  1.600000e+00 -5.336000e+01
    279       3      16    1.0000  6.163000e+01  4.830000e+00 -5.377000e+01
    280       3      34    0.0000  6.338000e+01  7.330000e+00 -5.146000e+01
    281       3      22    0.0000  6.411000e+01  1.079000e+01 -5.279000e+01
    282       3      15    0.0000  6.750000e+01  1.244000e+01 -5.222000e+01
    283       3      22    0.0000  6.609000e+01  1.506000e+01 -4.987000e+01
    284       3      15    0.0000  6.430000e+01  1.262000e+01 -4.754000e+01
    285       3      29    0.0000  6.739000e+01  1.135000e+01 -4.570000e+01
    286       3      34    0.0000  6.871000e+01  1.489000e+01 -4.546000e+01
    287       3      33    0.0000  6.553000e+01  1.616000e+01 -4.385000e+01
    288       3      25    0.0000  6.530000e+01  1.312000e+01 -4.158000e+01
    289       3      15    0.0000  6.896000e+01  1.332000e+01 -4.046000e+01
    290       3      15    0.0000  6.849000e+01  1.706000e+01 -3.968000e+01
    291       3      34    0.0000  6.540000e+01  1.625000e+01 -3.754000e+01
    292       3      25    0.0000  6.715000e+01  1.343000e+01 -3.564000e+01
    293       3      20   -1.0000  7.013000e+01  1.569000e+01 -3.505000e+01
    294       3      33    0.0000  6.786000e+01  1.845000e+01 -3.381000e+01
    295       3      25    0.0000  6.601000e+01  1.619000e+01 -3.133000e+01
    296       3      31    0.0000  6.930000e+01  1.476000e+01 -3.013000e+01
    297       3      15    0.0000  7.059000e+01  1.829000e+01 -2.946000e+01
    298       3      20   -1.0000  6.743000e+01  1.916000e+01 -2.752000e+01
    299       3      24    0.0000  6.758000e+01  1.615000e+01 -2.523000e+01
    300       3      25    0.0000  7.132000e+01  1.651000e+01 -2.468000e+01
    301       3      20   -1.0000  7.099000e+01  2.022000e+01 -2.390000e+01
    302       3      25    0.0000  6.839000e+01  1.955000e+01 -2.118000e+01
    303       3      15    0.0000  7.019000e+01  1.639000e+01 -1.994000e+01
    304       3      22    0.0000  7.353000e+01  1.817000e+01 -1.957000e+01
    305       3      17    0.0000  7.162000e+01  2.080000e+01 -1.759000e+01
    306       3      15    0.0000  7.023000e+01  1.807000e+01 -1.528000e+01
    307       3      15    0.0000  7.375000e+01  1.664000e+01 -1.480000e+01
    308       3      16    1.0000  7.506000e+01  2.014000e+01 -1.396000e+01
    309       3      18   -1.0000  7.214000e+01  2.072000e+01 -1.154000e+01
    310       3      17    0.0000  7.315000e+01  1.748000e+01 -9.770000e+00
    311       3      26    1.0000  7.682000e+01  1.855000e+01 -9.750000e+00
    312       3      26    1.0000  7.789000e+01  1.589000e+01 -1.226000e+01
    313       3      31    0.0000  7.986000e+01  1.623000e+01 -1.546000e+01
    314       3      16    1.0000  7.886000e+01  1.293000e+01 -1.699000e+01
    315       3      24    0.0000  7.533000e+01  1.238000e+01 -1.829000e+01
    316       3      24    0.0000  7.381000e+01  9.130000e+00 -1.701000e+01
    317       3      29    0.0000  7.029000e+01  7.640000e+00 -1.763000e+01
    318       3      16    1.0000  6.891000e+01  9.490000e+00 -1.465000e+01
    319       3      23    0.0000  6.974000e+01  1.287000e+01 -1.626000e+01
    320       3      25    0.0000  6.808000e+01  1.185000e+01 -1.952000e+01
    321       3      21    0.0000  6.493000e+01  1.086000e+01 -1.757000e+01
    322       3      25    0.0000  6.495000e+01  1.411000e+01 -1.557000e+01
    323       3      15    0.0000  6.539000e+01  1.605000e+01 -1.887000e+01
    324       3      34    0.0000  6.253000e+01  1.427000e+01 -2.055000e+01
    325       3      16    1.0000  6.001000e+01  1.417000e+01 -1.777000e+01
    326       3      17    0.0000  6.050000e+01  1.779000e+01 -1.675000e+01
    327       3      18   -1.0000  5.998000e+01  1.893000e+01 -2.037000e+01
    328       3      20   -1.0000  5.636000e+01  1.901000e+01 -2.152000e+01
    329       3      20   -1.0000  5.702000e+01  1.823000e+01 -2.518000e+01
    330       3      25    0.0000  5.972000e+01  1.555000e+01 -2.480000e+01
    331       3      17    0.0000  5.756000e+01  1.389000e+01 -2.209000e+01
    332       3      26    1.0000  5.471000e+01  1.365000e+01 -2.458000e+01
    333       3      25    0.0000  5.695000e+01  1.243000e+01 -2.742000e+01
    334       3      25    0.0000  5.829000e+01  9.760000e+00 -2.505000e+01
    335       3      22    0.0000  5.502000e+01  9.140000e+00 -2.319000e+01
    336       3      16    1.0000  5.507000e+01  5.370000e+00 -2.370000e+01
    337       3      34    0.0000  5.880000e+01  4.910000e+00 -2.341000e+01
    338       3      31    0.0000  6.075000e+01  3.700000e+00 -2.039000e+01
    339       3      24    0.0000  6.430000e+01  4.940000e+00 -1.993000e+01
    340       3      15    0.0000  6.615000e+01  2.180000e+00 -1.807000e+01
    341       3      21    0.0000  6.777000e+01  3.260000e+00 -1.478000e+01
    342       3      22    0.0000  6.594000e+01  6.530000e+00 -1.506000e+01
    343       3      22    0.0000  6.389000e+01  6.390000e+00 -1.187000e+01
    344       3      34    0.0000  6.099000e+01  8.850000e+00 -1.154000e+01
    345       3      25    0.0000  6.058000e+01  1.256000e+01 -1.077000e+01
    346       3      29    0.0000  6.037000e+01  1.342000e+01 -7.020000e+00
    347       3      17    0.0000  5.668000e+01  1.398000e+01 -6.420000e+00
    348       3      24    0.0000  5.462000e+01  1.351000e+01 -3.280000e+00
    349       3      21    0.0000  5.088000e+01  1.418000e+01 -3.400000e+00
    350       3      30    0.0000  4.997000e+01  1.716000e+01 -1.170000e+00
    351       3      34    0.0000  4.746000e+01  1.536000e+01  9.800000e-01
    352       3      25    0.0000  5.014000e+01  1.295000e+01  2.150000e+00
    353       3      25    0.0000  5.233000e+01  1.558000e+01  3.840000e+00
    354       3      29    0.0000  5.195000e+01  1.603000e+01  7.580000e+00
    355       3      26    1.0000  5.048000e+01  1.912000e+01  9.280000e+00
    356       3      26    1.0000  4.796000e+01  2.082000e+01  1.156000e+01
    357       3      31    0.0000  5.088000e+01  2.009000e+01  1.387000e+01
    358       3      20   -1.0000  4.901000e+01  1.678000e+01  1.397000e+01
    359       3      30    0.0000  4.723000e+01  1.724000e+01  1.730000e+01
    360       3      30    0.0000  4.349000e+01  1.658000e+01  1.698000e+01
    361       3      26    1.0000  4.124000e+01  1.958000e+01  1.765000e+01
    362       3      30    0.0000  4.057000e+01  1.918000e+01  2.138000e+01
    363       3      26    1.0000  4.409000e+01  1.807000e+01  2.229000e+01
    364       3      30    0.0000  4.410000e+01  1.435000e+01  2.152000e+01
    365       3      26    1.0000  4.476000e+01  1.200000e+01  1.860000e+01
    366       4      15    0.0000  9.792000e+01 -2.890000e+00 -5.511000e+01
    367       4      26    1.0000  9.474000e+01 -4.950000e+00 -5.552000e+01
    368       4      30    0.0000  9.209000e+01 -6.280000e+00 -5.315000e+01
    369       4      15    0.0000  8.912000e+01 -7.540000e+00 -5.517000e+01
    370       4      29    0.0000  8.760000e+01 -9.730000e+00 -5.641000e+01
    371       4      15    0.0000  8.701000e+01 -1.270000e+01 -5.410000e+01
    372       4      29    0.0000  8.715000e+01 -1.479000e+01 -5.198000e+01
    373       4      26    1.0000  8.802000e+01 -1.377000e+01 -4.841000e+01
    374       4      26    1.0000  8.504000e+01 -1.138000e+01 -4.813000e+01
    375       4      22    0.0000  8.444000e+01 -1.189000e+01 -4.444000e+01
    376       4      30    0.0000  8.792000e+01 -1.310000e+01 -4.354000e+01
    377       4      26    1.0000  8.982000e+01 -1.320000e+01 -4.025000e+01
    378       4      26    1.0000  9.073000e+01 -1.632000e+01 -3.828000e+01
    379       4      15    0.0000  9.083000e+01 -1.945000e+01 -4.041000e+01
    380       4      34    0.0000  9.203000e+01 -2.245000e+01 -3.840000e+01
    381       4      31    0.0000  9.519000e+01 -2.072000e+01 -3.716000e+01
    382       4      26    1.0000  9.818000e+01 -1.955000e+01 -3.923000e+01
    383       4      31    0.0000  9.919000e+01 -1.618000e+01 -3.777000e+01
    384       4      21    0.0000  1.022600e+02 -1.398000e+01 -3.830000e+01