protein dna data file produced on: Mon Dec  2 18:17:56 2019

59 atoms
58 bonds
57 angles
56 dihedrals

20 atom types
1 bond types
1 angle types
1 dihedral types

-1000.000000 1000.000000 xlo xhi
-1000.000000 1000.000000 ylo yhi
-1000.000000 1000.000000 zlo zhi

Masses

   1   71.0788
   2  156.1875
   3  114.1038
   4  115.0886
   5  103.1388
   6  129.1155
   7  128.1307
   8   57.0519
   9  137.1411
  10  113.1594
  11  113.1594
  12  128.1741
  13  131.1926
  14  147.1766
  15   97.1167
  16   87.0782
  17  101.1051
  18  186.2132
  19  163.1760
  20   99.1326

Atoms

      1       1       1      19    0.0000 -1.680000000e+00 3.490000000e+00 4.332000000e+01
      2       1       2       2    1.0000 -2.840000000e+00 5.610000000e+00 4.027000000e+01
      3       1       3       8    0.0000 -1.160000000e+00 8.160000000e+00 3.791000000e+01
      4       1       4       9    0.0000 -1.960000000e+00 1.163000000e+01 3.636000000e+01
      5       1       5       2    1.0000 1.000000000e-01 1.455000000e+01 3.660000000e+01
      6       1       6      14    0.0000 -2.000000000e-01 1.772000000e+01 3.860000000e+01
      7       1       7      17    0.0000 -5.600000000e-01 2.102000000e+01 3.679000000e+01
      8       1       8      12    1.0000 2.820000000e+00 2.270000000e+01 3.586000000e+01
      9       1       9       6   -1.0000 2.400000000e+00 2.562000000e+01 3.832000000e+01
     10       1      10       3    0.0000 2.050000000e+00 2.297000000e+01 4.106000000e+01
     11       1      11      20    0.0000 5.040000000e+00 2.077000000e+01 4.024000000e+01
     12       1      12       2    1.0000 6.850000000e+00 2.411000000e+01 4.000000000e+01
     13       1      13      10    0.0000 5.980000000e+00 2.528000000e+01 4.350000000e+01
     14       1      14      11    0.0000 6.450000000e+00 2.185000000e+01 4.506000000e+01
     15       1      15       6   -1.0000 9.890000000e+00 2.169000000e+01 4.340000000e+01
     16       1      16      16    0.0000 1.068000000e+01 2.515000000e+01 4.461000000e+01
     17       1      17      18    0.0000 9.940000000e+00 2.414000000e+01 4.813000000e+01
     18       1      18      14    0.0000 1.207000000e+01 2.099000000e+01 4.806000000e+01
     19       1      19       1    0.0000 1.506000000e+01 2.294000000e+01 4.659000000e+01
     20       1      20      12    1.0000 1.482000000e+01 2.594000000e+01 4.902000000e+01
     21       1      21       3    0.0000 1.464000000e+01 2.312000000e+01 5.162000000e+01
     22       1      22      10    0.0000 1.725000000e+01 2.035000000e+01 5.068000000e+01
     23       1      23       6   -1.0000 1.905000000e+01 2.031000000e+01 5.410000000e+01
     24       1      24       3    0.0000 1.605000000e+01 1.887000000e+01 5.588000000e+01
     25       1      25      15    0.0000 1.306000000e+01 1.864000000e+01 5.336000000e+01
     26       1      26      19    0.0000 1.043000000e+01 1.746000000e+01 5.577000000e+01
     27       1      27      11    0.0000 7.170000000e+00 1.941000000e+01 5.577000000e+01
     28       1      28       4   -1.0000 6.310000000e+00 2.129000000e+01 5.902000000e+01
     29       1      29      17    0.0000 3.080000000e+00 2.285000000e+01 6.023000000e+01
     30       1      30      12    1.0000 3.510000000e+00 2.633000000e+01 5.877000000e+01
     31       1      31       8    0.0000 5.260000000e+00 2.480000000e+01 5.581000000e+01
     32       1      32      11    0.0000 2.340000000e+00 2.255000000e+01 5.480000000e+01
     33       1      33       6   -1.0000 -1.200000000e-01 2.534000000e+01 5.520000000e+01
     34       1      34       3    0.0000 1.650000000e+00 2.757000000e+01 5.270000000e+01
     35       1      35      11    0.0000 1.930000000e+00 2.495000000e+01 5.002000000e+01
     36       1      36      13    0.0000 -1.730000000e+00 2.410000000e+01 5.077000000e+01
     37       1      37      12    1.0000 -2.430000000e+00 2.781000000e+01 5.041000000e+01
     38       1      38       3    0.0000 -5.400000000e-01 2.768000000e+01 4.707000000e+01
     39       1      39      17    0.0000 -1.820000000e+00 2.455000000e+01 4.535000000e+01
     40       1      40      16    0.0000 -5.010000000e+00 2.287000000e+01 4.437000000e+01
     41       1      41      11    0.0000 -3.650000000e+00 1.962000000e+01 4.607000000e+01
     42       1      42      16    0.0000 -5.340000000e+00 1.773000000e+01 4.890000000e+01
     43       1      43       2    1.0000 -2.890000000e+00 1.778000000e+01 5.195000000e+01
     44       1      44      10    0.0000 -2.380000000e+00 1.392000000e+01 5.156000000e+01
     45       1      45       7    0.0000 -1.110000000e+00 1.458000000e+01 4.805000000e+01
     46       1      46      10    0.0000 1.490000000e+00 1.711000000e+01 4.925000000e+01
     47       1      47      12    1.0000 2.560000000e+00 1.476000000e+01 5.200000000e+01
     48       1      48       3    0.0000 2.920000000e+00 1.206000000e+01 4.944000000e+01
     49       1      49      18    0.0000 4.790000000e+00 1.420000000e+01 4.688000000e+01
     50       1      50      20    0.0000 7.460000000e+00 1.543000000e+01 4.930000000e+01
     51       1      51      16    0.0000 8.050000000e+00 1.178000000e+01 5.050000000e+01
     52       1      52       3    0.0000 8.230000000e+00 1.040000000e+01 4.693000000e+01
     53       1      53       2    1.0000 1.047000000e+01 1.338000000e+01 4.600000000e+01
     54       1      54       2    1.0000 1.292000000e+01 1.236000000e+01 4.873000000e+01
     55       1      55       2    1.0000 1.307000000e+01 8.780000000e+00 4.738000000e+01
     56       1      56      12    1.0000 1.403000000e+01 1.038000000e+01 4.401000000e+01
     57       1      57       6   -1.0000 1.675000000e+01 1.258000000e+01 4.545000000e+01
     58       1      58      12    1.0000 1.799000000e+01 9.280000000e+00 4.703000000e+01
     59       1      59      17    0.0000 1.912000000e+01 8.400000000e+00 4.349000000e+01

Bonds

      1       1       1       2
      2       1       2       3
      3       1       3       4
      4       1       4       5
      5       1       5       6
      6       1       6       7
      7       1       7       8
      8       1       8       9
      9       1       9      10
     10       1      10      11
     11       1      11      12
     12       1      12      13
     13       1      13      14
     14       1      14      15
     15       1      15      16
     16       1      16      17
     17       1      17      18
     18       1      18      19
     19       1      19      20
     20       1      20      21
     21       1      21      22
     22       1      22      23
     23       1      23      24
     24       1      24      25
     25       1      25      26
     26       1      26      27
     27       1      27      28
     28       1      28      29
     29       1      29      30
     30       1      30      31
     31       1      31      32
     32       1      32      33
     33       1      33      34
     34       1      34      35
     35       1      35      36
     36       1      36      37
     37       1      37      38
     38       1      38      39
     39       1      39      40
     40       1      40      41
     41       1      41      42
     42       1      42      43
     43       1      43      44
     44       1      44      45
     45       1      45      46
     46       1      46      47
     47       1      47      48
     48       1      48      49
     49       1      49      50
     50       1      50      51
     51       1      51      52
     52       1      52      53
     53       1      53      54
     54       1      54      55
     55       1      55      56
     56       1      56      57
     57       1      57      58
     58       1      58      59

Angles

      1       1       1       2       3
      2       1       2       3       4
      3       1       3       4       5
      4       1       4       5       6
      5       1       5       6       7
      6       1       6       7       8
      7       1       7       8       9
      8       1       8       9      10
      9       1       9      10      11
     10       1      10      11      12
     11       1      11      12      13
     12       1      12      13      14
     13       1      13      14      15
     14       1      14      15      16
     15       1      15      16      17
     16       1      16      17      18
     17       1      17      18      19
     18       1      18      19      20
     19       1      19      20      21
     20       1      20      21      22
     21       1      21      22      23
     22       1      22      23      24
     23       1      23      24      25
     24       1      24      25      26
     25       1      25      26      27
     26       1      26      27      28
     27       1      27      28      29
     28       1      28      29      30
     29       1      29      30      31
     30       1      30      31      32
     31       1      31      32      33
     32       1      32      33      34
     33       1      33      34      35
     34       1      34      35      36
     35       1      35      36      37
     36       1      36      37      38
     37       1      37      38      39
     38       1      38      39      40
     39       1      39      40      41
     40       1      40      41      42
     41       1      41      42      43
     42       1      42      43      44
     43       1      43      44      45
     44       1      44      45      46
     45       1      45      46      47
     46       1      46      47      48
     47       1      47      48      49
     48       1      48      49      50
     49       1      49      50      51
     50       1      50      51      52
     51       1      51      52      53
     52       1      52      53      54
     53       1      53      54      55
     54       1      54      55      56
     55       1      55      56      57
     56       1      56      57      58
     57       1      57      58      59

Dihedrals

      1       1       1       2       3       4
      2       1       2       3       4       5
      3       1       3       4       5       6
      4       1       4       5       6       7
      5       1       5       6       7       8
      6       1       6       7       8       9
      7       1       7       8       9      10
      8       1       8       9      10      11
      9       1       9      10      11      12
     10       1      10      11      12      13
     11       1      11      12      13      14
     12       1      12      13      14      15
     13       1      13      14      15      16
     14       1      14      15      16      17
     15       1      15      16      17      18
     16       1      16      17      18      19
     17       1      17      18      19      20
     18       1      18      19      20      21
     19       1      19      20      21      22
     20       1      20      21      22      23
     21       1      21      22      23      24
     22       1      22      23      24      25
     23       1      23      24      25      26
     24       1      24      25      26      27
     25       1      25      26      27      28
     26       1      26      27      28      29
     27       1      27      28      29      30
     28       1      28      29      30      31
     29       1      29      30      31      32
     30       1      30      31      32      33
     31       1      31      32      33      34
     32       1      32      33      34      35
     33       1      33      34      35      36
     34       1      34      35      36      37
     35       1      35      36      37      38
     36       1      36      37      38      39
     37       1      37      38      39      40
     38       1      38      39      40      41
     39       1      39      40      41      42
     40       1      40      41      42      43
     41       1      41      42      43      44
     42       1      42      43      44      45
     43       1      43      44      45      46
     44       1      44      45      46      47
     45       1      45      46      47      48
     46       1      46      47      48      49
     47       1      47      48      49      50
     48       1      48      49      50      51
     49       1      49      50      51      52
     50       1      50      51      52      53
     51       1      51      52      53      54
     52       1      52      53      54      55
     53       1      53      54      55      56
     54       1      54      55      56      57
     55       1      55      56      57      58
     56       1      56      57      58      59

