protein dna data file produced on: Mon Dec  2 18:18:03 2019

1179 atoms
180 bonds
255 angles
212 dihedrals

38 atom types
2 bond types
18 angle types
2 dihedral types

-100.0 100.0 xlo xhi
-100.0 100.0 ylo yhi
-100.0 100.0 zlo zhi

Masses

   1   94.9696
   2   83.1104
   3  134.1220
   4  125.1078
   5  150.1214
   6  110.0964
   7  134.1220
   8  125.1078
   9  150.1214
  10  110.0964
  11  134.1220
  12  125.1078
  13  150.1214
  14  110.0964
  15   71.0788
  16  156.1875
  17  114.1038
  18  115.0886
  19  103.1388
  20  129.1155
  21  128.1307
  22   57.0519
  23  137.1411
  24  113.1594
  25  113.1594
  26  128.1741
  27  131.1926
  28  147.1766
  29   97.1167
  30   87.0782
  31  101.1051
  32  186.2132
  33  163.1760
  34   99.1326
  35   22.9898
  36   24.3050
  37   35.4530
  38   49.4000

Atoms

      1       1      33    0.0000 -1.680000e+00  3.490000e+00  4.332000e+01
      2       1      16    1.0000 -2.840000e+00  5.610000e+00  4.027000e+01
      3       1      22    0.0000 -1.160000e+00  8.160000e+00  3.791000e+01
      4       1      23    0.0000 -1.960000e+00  1.163000e+01  3.636000e+01
      5       1      16    1.0000  1.000000e-01  1.455000e+01  3.660000e+01
      6       1      28    0.0000 -2.000000e-01  1.772000e+01  3.860000e+01
      7       1      31    0.0000 -5.600000e-01  2.102000e+01  3.679000e+01
      8       1      26    1.0000  2.820000e+00  2.270000e+01  3.586000e+01
      9       1      20   -1.0000  2.400000e+00  2.562000e+01  3.832000e+01
     10       1      17    0.0000  2.050000e+00  2.297000e+01  4.106000e+01
     11       1      34    0.0000  5.040000e+00  2.077000e+01  4.024000e+01
     12       1      16    1.0000  6.850000e+00  2.411000e+01  4.000000e+01
     13       1      24    0.0000  5.980000e+00  2.528000e+01  4.350000e+01
     14       1      25    0.0000  6.450000e+00  2.185000e+01  4.506000e+01
     15       1      20   -1.0000  9.890000e+00  2.169000e+01  4.340000e+01
     16       1      30    0.0000  1.068000e+01  2.515000e+01  4.461000e+01
     17       1      32    0.0000  9.940000e+00  2.414000e+01  4.813000e+01
     18       1      28    0.0000  1.207000e+01  2.099000e+01  4.806000e+01
     19       1      15    0.0000  1.506000e+01  2.294000e+01  4.659000e+01
     20       1      26    1.0000  1.482000e+01  2.594000e+01  4.902000e+01
     21       1      17    0.0000  1.464000e+01  2.312000e+01  5.162000e+01
     22       1      24    0.0000  1.725000e+01  2.035000e+01  5.068000e+01
     23       1      20   -1.0000  1.905000e+01  2.031000e+01  5.410000e+01
     24       1      17    0.0000  1.605000e+01  1.887000e+01  5.588000e+01
     25       1      29    0.0000  1.306000e+01  1.864000e+01  5.336000e+01
     26       1      33    0.0000  1.043000e+01  1.746000e+01  5.577000e+01
     27       1      25    0.0000  7.170000e+00  1.941000e+01  5.577000e+01
     28       1      18   -1.0000  6.310000e+00  2.129000e+01  5.902000e+01
     29       1      31    0.0000  3.080000e+00  2.285000e+01  6.023000e+01
     30       1      26    1.0000  3.510000e+00  2.633000e+01  5.877000e+01
     31       1      22    0.0000  5.260000e+00  2.480000e+01  5.581000e+01
     32       1      25    0.0000  2.340000e+00  2.255000e+01  5.480000e+01
     33       1      20   -1.0000 -1.200000e-01  2.534000e+01  5.520000e+01
     34       1      17    0.0000  1.650000e+00  2.757000e+01  5.270000e+01
     35       1      25    0.0000  1.930000e+00  2.495000e+01  5.002000e+01
     36       1      27    0.0000 -1.730000e+00  2.410000e+01  5.077000e+01
     37       1      26    1.0000 -2.430000e+00  2.781000e+01  5.041000e+01
     38       1      17    0.0000 -5.400000e-01  2.768000e+01  4.707000e+01
     39       1      31    0.0000 -1.820000e+00  2.455000e+01  4.535000e+01
     40       1      30    0.0000 -5.010000e+00  2.287000e+01  4.437000e+01
     41       1      25    0.0000 -3.650000e+00  1.962000e+01  4.607000e+01
     42       1      30    0.0000 -5.340000e+00  1.773000e+01  4.890000e+01
     43       1      16    1.0000 -2.890000e+00  1.778000e+01  5.195000e+01
     44       1      24    0.0000 -2.380000e+00  1.392000e+01  5.156000e+01
     45       1      21    0.0000 -1.110000e+00  1.458000e+01  4.805000e+01
     46       1      24    0.0000  1.490000e+00  1.711000e+01  4.925000e+01
     47       1      26    1.0000  2.560000e+00  1.476000e+01  5.200000e+01
     48       1      17    0.0000  2.920000e+00  1.206000e+01  4.944000e+01
     49       1      32    0.0000  4.790000e+00  1.420000e+01  4.688000e+01
     50       1      34    0.0000  7.460000e+00  1.543000e+01  4.930000e+01
     51       1      30    0.0000  8.050000e+00  1.178000e+01  5.050000e+01
     52       1      17    0.0000  8.230000e+00  1.040000e+01  4.693000e+01
     53       1      16    1.0000  1.047000e+01  1.338000e+01  4.600000e+01
     54       1      16    1.0000  1.292000e+01  1.236000e+01  4.873000e+01
     55       1      16    1.0000  1.307000e+01  8.780000e+00  4.738000e+01
     56       1      26    1.0000  1.403000e+01  1.038000e+01  4.401000e+01
     57       1      20   -1.0000  1.675000e+01  1.258000e+01  4.545000e+01
     58       1      26    1.0000  1.799000e+01  9.280000e+00  4.703000e+01
     59       1      31    0.0000  1.912000e+01  8.400000e+00  4.349000e+01
     60       2       2    0.0000  4.721025e+01  6.611468e+00 -7.686480e-01
     61       2       7    0.0000  4.955984e+01  2.425299e+00  1.221300e-02
     62       2       1   -1.0000  4.526689e+01  7.366864e+00  1.413629e+00
     63       2       2    0.0000  4.461161e+01  3.868585e+00  2.439399e+00
     64       2       6    0.0000  4.848609e+01  2.206975e+00  3.284253e+00
     65       2       1   -1.0000  4.163026e+01  3.086495e+00  5.559634e+00
     66       2       2    0.0000  4.307006e+01 -2.280380e-01  6.574417e+00
     67       2       3    0.0000  4.789070e+01  3.140070e-01  6.923878e+00
     68       2       1   -1.0000  4.182198e+01 -1.817133e+00  9.166918e+00
     69       2       2    0.0000  4.489929e+01 -3.805392e+00  9.860574e+00
     70       2       4    0.0000  4.776632e+01 -5.358250e-01  1.037456e+01
     71       2       1   -1.0000  4.444535e+01 -6.305540e+00  1.344229e+01
     72       2       2    0.0000  4.806562e+01 -6.222168e+00  1.427702e+01
     73       2       5    0.0000  4.992272e+01 -1.619212e+00  1.396156e+01
     74       2       1   -1.0000  4.945823e+01 -7.895408e+00  1.673726e+01
     75       2       2    0.0000  5.259302e+01 -5.840299e+00  1.702838e+01
     76       2       4    0.0000  5.075212e+01 -1.878269e+00  1.731905e+01
     77       2       1   -1.0000  5.518505e+01 -6.751134e+00  2.019369e+01
     78       2       2    0.0000  5.654653e+01 -3.268932e+00  2.050380e+01
     79       2       3    0.0000  5.281278e+01 -1.523370e-01  2.048506e+01
     80       2       1   -1.0000  5.920646e+01 -2.396244e+00  2.290134e+01
     81       2       2    0.0000  5.832610e+01  1.240992e+00  2.303384e+01
     82       2       3    0.0000  5.350257e+01  1.673142e+00  2.348200e+01
     83       2       1   -1.0000  5.993366e+01  3.109358e+00  2.520883e+01
     84       2       2    0.0000  5.728641e+01  5.726345e+00  2.543103e+01
     85       2       4    0.0000  5.390614e+01  3.226333e+00  2.665506e+01
     86       2       1   -1.0000  5.784674e+01  8.799192e+00  2.771647e+01
     87       2       2    0.0000  5.419140e+01  9.529791e+00  2.820149e+01
     88       2       4    0.0000  5.294739e+01  5.587688e+00  2.964566e+01
     89       2       1   -1.0000  5.351995e+01  1.235570e+01  3.050540e+01
     90       2       2    0.0000  5.023490e+01  1.098313e+01  3.155060e+01
     91       2       6    0.0000  5.114227e+01  6.964396e+00  3.278042e+01
     92       2       1   -1.0000  4.765157e+01  1.315289e+01  3.435272e+01
     93       2       2    0.0000  4.577886e+01  1.011078e+01  3.550472e+01
     94       2       3    0.0000  4.904713e+01  6.607140e+00  3.633972e+01
     95       2       1   -1.0000  4.360502e+01  1.037142e+01  3.795674e+01
     96       2       2    0.0000  4.378701e+01  6.783654e+00  3.895535e+01
     97       2       4    0.0000  4.808047e+01  6.478698e+00  3.975930e+01
     98       2       1   -1.0000  4.157335e+01  5.512329e+00  4.186485e+01
     99       2       2    0.0000  4.379469e+01  2.607026e+00  4.273436e+01
    100       2       4    0.0000  4.753631e+01  4.816013e+00  4.327762e+01
    101       2       1   -1.0000  4.294376e+01  2.538170e-01  4.568747e+01
    102       2       2    0.0000  4.648816e+01 -8.565340e-01  4.626632e+01
    103       2       4    0.0000  4.831950e+01  3.094817e+00  4.672168e+01
    104       2       1   -1.0000  4.730420e+01 -3.487201e+00  4.942572e+01
    105       2       2    0.0000  5.082610e+01 -2.297353e+00  4.993064e+01
    106       2       3    0.0000  5.080941e+01  2.565941e+00  5.000365e+01
    107       2       1   -1.0000  5.226236e+01 -3.565980e+00  5.226242e+01
    108       2       2    0.0000  5.455985e+01 -7.066650e-01  5.277631e+01
    109       2       6    0.0000  5.199856e+01  2.715924e+00  5.323919e+01
    110       2       1   -1.0000  5.768481e+01 -1.007875e+00  5.583867e+01
    111       2       2    0.0000  5.805734e+01  2.698410e+00  5.630195e+01
    112       2       3    0.0000  5.358798e+01  4.597502e+00  5.657343e+01
    113       2       1   -1.0000  5.989484e+01  3.528975e+00  5.854768e+01
    114       2       2    0.0000  5.819521e+01  6.768743e+00  5.912720e+01
    115       2       6    0.0000  5.406723e+01  5.763257e+00  5.978574e+01
    116       2       1   -1.0000  6.023636e+01  9.354944e+00  6.244538e+01
    117       2       2    0.0000  5.711896e+01  1.119914e+01  6.312853e+01
    118       2       5    0.0000  5.325506e+01  8.076739e+00  6.336316e+01
    119       2       1   -1.0000  5.709983e+01  1.382456e+01  6.505480e+01
    120       2       2    0.0000  5.346595e+01  1.354252e+01  6.569309e+01
    121       2      14    0.0000  5.294082e+01  9.355106e+00  6.651688e+01
    122       3       2    0.0000  4.437487e+01  3.597504e+00  6.637537e+01
    123       3       9    0.0000  4.893249e+01  5.580073e+00  6.619454e+01
    124       3       1   -1.0000  4.213672e+01  4.682528e+00  6.427376e+01
    125       3       2    0.0000  4.408631e+01  7.731538e+00  6.350485e+01
    126       3       6    0.0000  4.807559e+01  6.226317e+00  6.294987e+01
    127       3       1   -1.0000  4.232834e+01  1.024530e+01  5.997576e+01
    128       3       2    0.0000  4.562668e+01  1.167172e+01  5.915747e+01
    129       3       5    0.0000  4.912148e+01  8.133612e+00  5.919813e+01
    130       3       1   -1.0000  4.621220e+01  1.388891e+01  5.680512e+01
    131       3       2    0.0000  4.989012e+01  1.322410e+01  5.639595e+01
    132       3       4    0.0000  4.971384e+01  8.881517e+00  5.586367e+01
    133       3       1   -1.0000  5.153144e+01  1.534233e+01  5.291680e+01
    134       3       2    0.0000  5.412604e+01  1.276750e+01  5.224604e+01
    135       3       5    0.0000  5.224619e+01  8.166679e+00  5.243355e+01
    136       3       1   -1.0000  5.644576e+01  1.300663e+01  4.993266e+01
    137       3       2    0.0000  5.728970e+01  9.350558e+00  4.969116e+01
    138       3       4    0.0000  5.323987e+01  7.780967e+00  4.913332e+01
    139       3       1   -1.0000  5.998721e+01  8.208402e+00  4.669397e+01
    140       3       2    0.0000  5.857015e+01  4.758886e+00  4.628568e+01
    141       3       3    0.0000  5.372852e+01  5.112253e+00  4.598866e+01
    142       3       1   -1.0000  6.002930e+01  2.286424e+00  4.396848e+01
    143       3       2    0.0000  5.688381e+01  2.835300e-01  4.362222e+01
    144       3       3    0.0000  5.315230e+01  3.328208e+00  4.294231e+01
    145       3       1   -1.0000  5.678255e+01 -2.704672e+00  4.146029e+01
    146       3       2    0.0000  5.308321e+01 -2.560742e+00  4.089655e+01
    147       3       3    0.0000  5.182699e+01  2.027694e+00  3.988505e+01
    148       3       1   -1.0000  5.179415e+01 -4.688712e+00  3.874772e+01
    149       3       2    0.0000  4.877786e+01 -2.629019e+00  3.799683e+01
    150       3       4    0.0000  5.073654e+01  1.046862e+00  3.664574e+01
    151       3       1   -1.0000  4.626024e+01 -4.495463e+00  3.492089e+01
    152       3       2    0.0000  4.495890e+01 -1.254971e+00  3.364980e+01
    153       3       5    0.0000  4.860000e+01  2.076032e+00  3.303110e+01
    154       3       1   -1.0000  4.213736e+01 -9.495270e-01  3.122085e+01
    155       3       2    0.0000  4.303037e+01  2.511425e+00  3.012001e+01
    156       3       3    0.0000  4.786731e+01  2.749266e+00  2.966943e+01
    157       3       1   -1.0000  4.119462e+01  4.152330e+00  2.737226e+01
    158       3       2    0.0000  4.401765e+01  6.419888e+00  2.641684e+01
    159       3       3    0.0000  4.813104e+01  3.828543e+00  2.626924e+01
    160       3       1   -1.0000  4.363301e+01  8.266720e+00  2.372450e+01
    161       3       2    0.0000  4.728102e+01  8.691382e+00  2.307958e+01
    162       3       4    0.0000  4.845353e+01  4.482448e+00  2.278894e+01
    163       3       1   -1.0000  4.843628e+01  1.083335e+01  2.007554e+01
    164       3       2    0.0000  5.177759e+01  9.147248e+00  1.972847e+01
    165       3       4    0.0000  5.036675e+01  5.014944e+00  1.939863e+01
    166       3       1   -1.0000  5.433637e+01  1.032686e+01  1.662549e+01
    167       3       2    0.0000  5.606005e+01  7.006048e+00  1.635299e+01
    168       3       3    0.0000  5.267192e+01  3.517355e+00  1.628531e+01
    169       3       1   -1.0000  5.807950e+01  6.814569e+00  1.411790e+01
    170       3       2    0.0000  5.776483e+01  3.141521e+00  1.375874e+01
    171       3       6    0.0000  5.356979e+01  2.435017e+00  1.313419e+01
    172       3       1   -1.0000  6.035709e+01  1.049942e+00  1.090580e+01
    173       3       2    0.0000  5.807052e+01 -1.894950e+00  1.047317e+01
    174       3       3    0.0000  5.355615e+01 -1.743700e-01  9.912971e+00
    175       3       1   -1.0000  5.879185e+01 -4.199275e+00  8.242090e+00
    176       3       2    0.0000  5.528311e+01 -5.397925e+00  7.845024e+00
    177       3       4    0.0000  5.336742e+01 -1.637466e+00  6.677687e+00
    178       3       1   -1.0000  5.497447e+01 -8.534758e+00  4.787556e+00
    179       3       2    0.0000  5.148482e+01 -7.653105e+00  3.862958e+00
    180       3       5    0.0000  5.091486e+01 -2.745134e+00  3.294292e+00
    181       3       1   -1.0000  4.964096e+01 -9.317209e+00  1.713019e+00
    182       3       2    0.0000  4.715188e+01 -6.596525e+00  9.779680e-01
    183       3      12    0.0000  4.996435e+01 -3.380030e+00  1.981600e-02
184 21 35 1.0 -84.0 -84.0 -84.0
185 22 35 1.0 -84.0 -84.0 -69.0
186 23 35 1.0 -84.0 -84.0 -54.0
187 24 35 1.0 -84.0 -84.0 -39.0
188 25 35 1.0 -84.0 -84.0 -24.0
189 26 35 1.0 -84.0 -84.0 -9.0
190 27 35 1.0 -84.0 -84.0 6.0
191 28 35 1.0 -84.0 -84.0 21.0
192 29 35 1.0 -84.0 -84.0 36.0
193 30 35 1.0 -84.0 -84.0 51.0
194 31 35 1.0 -84.0 -84.0 66.0
195 32 35 1.0 -84.0 -84.0 81.0
196 33 35 1.0 -84.0 -69.0 -84.0
197 34 35 1.0 -84.0 -69.0 -69.0
198 35 35 1.0 -84.0 -69.0 -54.0
199 36 35 1.0 -84.0 -69.0 -39.0
200 37 35 1.0 -84.0 -69.0 -24.0
201 38 35 1.0 -84.0 -69.0 -9.0
202 39 35 1.0 -84.0 -69.0 6.0
203 40 35 1.0 -84.0 -69.0 21.0
204 41 35 1.0 -84.0 -69.0 36.0
205 42 35 1.0 -84.0 -69.0 51.0
206 43 35 1.0 -84.0 -69.0 66.0
207 44 35 1.0 -84.0 -69.0 81.0
208 45 35 1.0 -84.0 -54.0 -84.0
209 46 35 1.0 -84.0 -54.0 -69.0
210 47 35 1.0 -84.0 -54.0 -54.0
211 48 35 1.0 -84.0 -54.0 -39.0
212 49 35 1.0 -84.0 -54.0 -24.0
213 50 35 1.0 -84.0 -54.0 -9.0
214 51 35 1.0 -84.0 -54.0 6.0
215 52 35 1.0 -84.0 -54.0 21.0
216 53 35 1.0 -84.0 -54.0 36.0
217 54 35 1.0 -84.0 -54.0 51.0
218 55 35 1.0 -84.0 -54.0 66.0
219 56 35 1.0 -84.0 -54.0 81.0
220 57 35 1.0 -84.0 -39.0 -84.0
221 58 35 1.0 -84.0 -39.0 -69.0
222 59 35 1.0 -84.0 -39.0 -54.0
223 60 35 1.0 -84.0 -39.0 -39.0
224 61 35 1.0 -84.0 -39.0 -24.0
225 62 35 1.0 -84.0 -39.0 -9.0
226 63 35 1.0 -84.0 -39.0 6.0
227 64 35 1.0 -84.0 -39.0 21.0
228 65 35 1.0 -84.0 -39.0 36.0
229 66 35 1.0 -84.0 -39.0 51.0
230 67 35 1.0 -84.0 -39.0 66.0
231 68 35 1.0 -84.0 -39.0 81.0
232 69 35 1.0 -84.0 -24.0 -84.0
233 70 35 1.0 -84.0 -24.0 -69.0
234 71 35 1.0 -84.0 -24.0 -54.0
235 72 35 1.0 -84.0 -24.0 -39.0
236 73 35 1.0 -84.0 -24.0 -24.0
237 74 35 1.0 -84.0 -24.0 -9.0
238 75 35 1.0 -84.0 -24.0 6.0
239 76 35 1.0 -84.0 -24.0 21.0
240 77 35 1.0 -84.0 -24.0 36.0
241 78 35 1.0 -84.0 -24.0 51.0
242 79 35 1.0 -84.0 -24.0 66.0
243 80 35 1.0 -84.0 -24.0 81.0
244 81 35 1.0 -84.0 -9.0 -84.0
245 82 35 1.0 -84.0 -9.0 -69.0
246 83 35 1.0 -84.0 -9.0 -54.0
247 84 35 1.0 -84.0 -9.0 -39.0
248 85 35 1.0 -84.0 -9.0 -24.0
249 86 35 1.0 -84.0 -9.0 -9.0
250 87 35 1.0 -84.0 -9.0 6.0
251 88 35 1.0 -84.0 -9.0 21.0
252 89 35 1.0 -84.0 -9.0 36.0
253 90 35 1.0 -84.0 -9.0 51.0
254 91 35 1.0 -84.0 -9.0 66.0
255 92 35 1.0 -84.0 -9.0 81.0
256 93 35 1.0 -84.0 6.0 -84.0
257 94 35 1.0 -84.0 6.0 -69.0
258 95 35 1.0 -84.0 6.0 -54.0
259 96 35 1.0 -84.0 6.0 -39.0
260 97 35 1.0 -84.0 6.0 -24.0
261 98 35 1.0 -84.0 6.0 -9.0
262 99 35 1.0 -84.0 6.0 6.0
263 100 35 1.0 -84.0 6.0 21.0
264 101 35 1.0 -84.0 6.0 36.0
265 102 35 1.0 -84.0 6.0 51.0
266 103 35 1.0 -84.0 6.0 66.0
267 104 35 1.0 -84.0 6.0 81.0
268 105 35 1.0 -84.0 21.0 -84.0
269 106 35 1.0 -84.0 21.0 -69.0
270 107 35 1.0 -84.0 21.0 -54.0
271 108 35 1.0 -84.0 21.0 -39.0
272 109 35 1.0 -84.0 21.0 -24.0
273 110 35 1.0 -84.0 21.0 -9.0
274 111 35 1.0 -84.0 21.0 6.0
275 112 35 1.0 -84.0 21.0 21.0
276 113 35 1.0 -84.0 21.0 36.0
277 114 35 1.0 -84.0 21.0 51.0
278 115 35 1.0 -84.0 21.0 66.0
279 116 35 1.0 -84.0 21.0 81.0
280 117 35 1.0 -84.0 36.0 -84.0
281 118 35 1.0 -84.0 36.0 -69.0
282 119 35 1.0 -84.0 36.0 -54.0
283 120 35 1.0 -84.0 36.0 -39.0
284 121 35 1.0 -84.0 36.0 -24.0
285 122 35 1.0 -84.0 36.0 -9.0
286 123 35 1.0 -84.0 36.0 6.0
287 124 35 1.0 -84.0 36.0 21.0
288 125 35 1.0 -84.0 36.0 36.0
289 126 35 1.0 -84.0 36.0 51.0
290 127 35 1.0 -84.0 36.0 66.0
291 128 35 1.0 -84.0 36.0 81.0
292 129 35 1.0 -84.0 51.0 -84.0
293 130 35 1.0 -84.0 51.0 -69.0
294 131 35 1.0 -84.0 51.0 -54.0
295 132 35 1.0 -84.0 51.0 -39.0
296 133 35 1.0 -84.0 51.0 -24.0
297 134 35 1.0 -84.0 51.0 -9.0
298 135 35 1.0 -84.0 51.0 6.0
299 136 35 1.0 -84.0 51.0 21.0
300 137 35 1.0 -84.0 51.0 36.0
301 138 35 1.0 -84.0 51.0 51.0
302 139 35 1.0 -84.0 51.0 66.0
303 140 35 1.0 -84.0 51.0 81.0
304 141 35 1.0 -84.0 66.0 -84.0
305 142 35 1.0 -84.0 66.0 -69.0
306 143 35 1.0 -84.0 66.0 -54.0
307 144 35 1.0 -84.0 66.0 -39.0
308 145 35 1.0 -84.0 66.0 -24.0
309 146 35 1.0 -84.0 66.0 -9.0
310 147 35 1.0 -84.0 66.0 6.0
311 148 35 1.0 -84.0 66.0 21.0
312 149 35 1.0 -84.0 66.0 36.0
313 150 35 1.0 -84.0 66.0 51.0
314 151 35 1.0 -84.0 66.0 66.0
315 152 35 1.0 -84.0 66.0 81.0
316 153 35 1.0 -84.0 81.0 -84.0
317 154 35 1.0 -84.0 81.0 -69.0
318 155 35 1.0 -84.0 81.0 -54.0
319 156 35 1.0 -84.0 81.0 -39.0
320 157 35 1.0 -84.0 81.0 -24.0
321 158 35 1.0 -84.0 81.0 -9.0
322 159 35 1.0 -84.0 81.0 6.0
323 160 35 1.0 -84.0 81.0 21.0
324 161 35 1.0 -84.0 81.0 36.0
325 162 35 1.0 -84.0 81.0 51.0
326 163 35 1.0 -84.0 81.0 66.0
327 164 35 1.0 -84.0 81.0 81.0
328 165 35 1.0 -69.0 -84.0 -84.0
329 166 35 1.0 -69.0 -84.0 -69.0
330 167 35 1.0 -69.0 -84.0 -54.0
331 168 35 1.0 -69.0 -84.0 -39.0
332 169 35 1.0 -69.0 -84.0 -24.0
333 170 35 1.0 -69.0 -84.0 -9.0
334 171 35 1.0 -69.0 -84.0 6.0
335 172 35 1.0 -69.0 -84.0 21.0
336 173 35 1.0 -69.0 -84.0 36.0
337 174 35 1.0 -69.0 -84.0 51.0
338 175 35 1.0 -69.0 -84.0 66.0
339 176 35 1.0 -69.0 -84.0 81.0
340 177 35 1.0 -69.0 -69.0 -84.0
341 178 35 1.0 -69.0 -69.0 -69.0
342 179 35 1.0 -69.0 -69.0 -54.0
343 180 35 1.0 -69.0 -69.0 -39.0
344 181 35 1.0 -69.0 -69.0 -24.0
345 182 35 1.0 -69.0 -69.0 -9.0
346 183 35 1.0 -69.0 -69.0 6.0
347 184 35 1.0 -69.0 -69.0 21.0
348 185 35 1.0 -69.0 -69.0 36.0
349 186 35 1.0 -69.0 -69.0 51.0
350 187 35 1.0 -69.0 -69.0 66.0
351 188 35 1.0 -69.0 -69.0 81.0
352 189 35 1.0 -69.0 -54.0 -84.0
353 190 35 1.0 -69.0 -54.0 -69.0
354 191 35 1.0 -69.0 -54.0 -54.0
355 192 35 1.0 -69.0 -54.0 -39.0
356 193 35 1.0 -69.0 -54.0 -24.0
357 194 35 1.0 -69.0 -54.0 -9.0
358 195 35 1.0 -69.0 -54.0 6.0
359 196 35 1.0 -69.0 -54.0 21.0
360 197 35 1.0 -69.0 -54.0 36.0
361 198 35 1.0 -69.0 -54.0 51.0
362 199 35 1.0 -69.0 -54.0 66.0
363 200 35 1.0 -69.0 -54.0 81.0
364 201 35 1.0 -69.0 -39.0 -84.0
365 202 35 1.0 -69.0 -39.0 -69.0
366 203 35 1.0 -69.0 -39.0 -54.0
367 204 35 1.0 -69.0 -39.0 -39.0
368 205 35 1.0 -69.0 -39.0 -24.0
369 206 35 1.0 -69.0 -39.0 -9.0
370 207 35 1.0 -69.0 -39.0 6.0
371 208 35 1.0 -69.0 -39.0 21.0
372 209 35 1.0 -69.0 -39.0 36.0
373 210 35 1.0 -69.0 -39.0 51.0
374 211 35 1.0 -69.0 -39.0 66.0
375 212 35 1.0 -69.0 -39.0 81.0
376 213 35 1.0 -69.0 -24.0 -84.0
377 214 35 1.0 -69.0 -24.0 -69.0
378 215 35 1.0 -69.0 -24.0 -54.0
379 216 35 1.0 -69.0 -24.0 -39.0
380 217 35 1.0 -69.0 -24.0 -24.0
381 218 35 1.0 -69.0 -24.0 -9.0
382 219 35 1.0 -69.0 -24.0 6.0
383 220 35 1.0 -69.0 -24.0 21.0
384 221 35 1.0 -69.0 -24.0 36.0
385 222 35 1.0 -69.0 -24.0 51.0
386 223 35 1.0 -69.0 -24.0 66.0
387 224 35 1.0 -69.0 -24.0 81.0
388 225 35 1.0 -69.0 -9.0 -84.0
389 226 35 1.0 -69.0 -9.0 -69.0
390 227 35 1.0 -69.0 -9.0 -54.0
391 228 35 1.0 -69.0 -9.0 -39.0
392 229 35 1.0 -69.0 -9.0 -24.0
393 230 35 1.0 -69.0 -9.0 -9.0
394 231 35 1.0 -69.0 -9.0 6.0
395 232 35 1.0 -69.0 -9.0 21.0
396 233 35 1.0 -69.0 -9.0 36.0
397 234 35 1.0 -69.0 -9.0 51.0
398 235 35 1.0 -69.0 -9.0 66.0
399 236 35 1.0 -69.0 -9.0 81.0
400 237 35 1.0 -69.0 6.0 -84.0
401 238 35 1.0 -69.0 6.0 -69.0
402 239 35 1.0 -69.0 6.0 -54.0
403 240 35 1.0 -69.0 6.0 -39.0
404 241 35 1.0 -69.0 6.0 -24.0
405 242 35 1.0 -69.0 6.0 -9.0
406 243 35 1.0 -69.0 6.0 6.0
407 244 35 1.0 -69.0 6.0 21.0
408 245 35 1.0 -69.0 6.0 36.0
409 246 35 1.0 -69.0 6.0 51.0
410 247 35 1.0 -69.0 6.0 66.0
411 248 35 1.0 -69.0 6.0 81.0
412 249 35 1.0 -69.0 21.0 -84.0
413 250 35 1.0 -69.0 21.0 -69.0
414 251 35 1.0 -69.0 21.0 -54.0
415 252 35 1.0 -69.0 21.0 -39.0
416 253 35 1.0 -69.0 21.0 -24.0
417 254 35 1.0 -69.0 21.0 -9.0
418 255 35 1.0 -69.0 21.0 6.0
419 256 35 1.0 -69.0 21.0 21.0
420 257 35 1.0 -69.0 21.0 36.0
421 258 35 1.0 -69.0 21.0 51.0
422 259 35 1.0 -69.0 21.0 66.0
423 260 35 1.0 -69.0 21.0 81.0
424 261 35 1.0 -69.0 36.0 -84.0
425 262 35 1.0 -69.0 36.0 -69.0
426 263 35 1.0 -69.0 36.0 -54.0
427 264 35 1.0 -69.0 36.0 -39.0
428 265 35 1.0 -69.0 36.0 -24.0
429 266 35 1.0 -69.0 36.0 -9.0
430 267 35 1.0 -69.0 36.0 6.0
431 268 35 1.0 -69.0 36.0 21.0
432 269 35 1.0 -69.0 36.0 36.0
433 270 35 1.0 -69.0 36.0 51.0
434 271 35 1.0 -69.0 36.0 66.0
435 272 35 1.0 -69.0 36.0 81.0
436 273 35 1.0 -69.0 51.0 -84.0
437 274 35 1.0 -69.0 51.0 -69.0
438 275 35 1.0 -69.0 51.0 -54.0
439 276 35 1.0 -69.0 51.0 -39.0
440 277 35 1.0 -69.0 51.0 -24.0
441 278 35 1.0 -69.0 51.0 -9.0
442 279 35 1.0 -69.0 51.0 6.0
443 280 35 1.0 -69.0 51.0 21.0
444 281 35 1.0 -69.0 51.0 36.0
445 282 35 1.0 -69.0 51.0 51.0
446 283 35 1.0 -69.0 51.0 66.0
447 284 35 1.0 -69.0 51.0 81.0
448 285 35 1.0 -69.0 66.0 -84.0
449 286 35 1.0 -69.0 66.0 -69.0
450 287 35 1.0 -69.0 66.0 -54.0
451 288 35 1.0 -69.0 66.0 -39.0
452 289 35 1.0 -69.0 66.0 -24.0
453 290 35 1.0 -69.0 66.0 -9.0
454 291 35 1.0 -69.0 66.0 6.0
455 292 35 1.0 -69.0 66.0 21.0
456 293 35 1.0 -69.0 66.0 36.0
457 294 35 1.0 -69.0 66.0 51.0
458 295 35 1.0 -69.0 66.0 66.0
459 296 35 1.0 -69.0 66.0 81.0
460 297 35 1.0 -69.0 81.0 -84.0
461 298 35 1.0 -69.0 81.0 -69.0
462 299 35 1.0 -69.0 81.0 -54.0
463 300 35 1.0 -69.0 81.0 -39.0
464 301 35 1.0 -69.0 81.0 -24.0
465 302 35 1.0 -69.0 81.0 -9.0
466 303 35 1.0 -69.0 81.0 6.0
467 304 35 1.0 -69.0 81.0 21.0
468 305 35 1.0 -69.0 81.0 36.0
469 306 35 1.0 -69.0 81.0 51.0
470 307 35 1.0 -69.0 81.0 66.0
471 308 35 1.0 -69.0 81.0 81.0
472 309 35 1.0 -54.0 -84.0 -84.0
473 310 35 1.0 -54.0 -84.0 -69.0
474 311 35 1.0 -54.0 -84.0 -54.0
475 312 35 1.0 -54.0 -84.0 -39.0
476 313 35 1.0 -54.0 -84.0 -24.0
477 314 35 1.0 -54.0 -84.0 -9.0
478 315 35 1.0 -54.0 -84.0 6.0
479 316 35 1.0 -54.0 -84.0 21.0
480 317 35 1.0 -54.0 -84.0 36.0
481 318 35 1.0 -54.0 -84.0 51.0
482 319 35 1.0 -54.0 -84.0 66.0
483 320 35 1.0 -54.0 -84.0 81.0
484 321 35 1.0 -54.0 -69.0 -84.0
485 322 35 1.0 -54.0 -69.0 -69.0
486 323 35 1.0 -54.0 -69.0 -54.0
487 324 35 1.0 -54.0 -69.0 -39.0
488 325 35 1.0 -54.0 -69.0 -24.0
489 326 35 1.0 -54.0 -69.0 -9.0
490 327 35 1.0 -54.0 -69.0 6.0
491 328 35 1.0 -54.0 -69.0 21.0
492 329 35 1.0 -54.0 -69.0 36.0
493 330 35 1.0 -54.0 -69.0 51.0
494 331 35 1.0 -54.0 -69.0 66.0
495 332 35 1.0 -54.0 -69.0 81.0
496 333 35 1.0 -54.0 -54.0 -84.0
497 334 35 1.0 -54.0 -54.0 -69.0
498 335 35 1.0 -54.0 -54.0 -54.0
499 336 35 1.0 -54.0 -54.0 -39.0
500 337 35 1.0 -54.0 -54.0 -24.0
501 338 35 1.0 -54.0 -54.0 -9.0
502 339 35 1.0 -54.0 -54.0 6.0
503 340 35 1.0 -54.0 -54.0 21.0
504 341 35 1.0 -54.0 -54.0 36.0
505 342 35 1.0 -54.0 -54.0 51.0
506 343 35 1.0 -54.0 -54.0 66.0
507 344 35 1.0 -54.0 -54.0 81.0
508 345 35 1.0 -54.0 -39.0 -84.0
509 346 35 1.0 -54.0 -39.0 -69.0
510 347 35 1.0 -54.0 -39.0 -54.0
511 348 35 1.0 -54.0 -39.0 -39.0
512 349 35 1.0 -54.0 -39.0 -24.0
513 350 35 1.0 -54.0 -39.0 -9.0
514 351 35 1.0 -54.0 -39.0 6.0
515 352 35 1.0 -54.0 -39.0 21.0
516 353 35 1.0 -54.0 -39.0 36.0
517 354 35 1.0 -54.0 -39.0 51.0
518 355 35 1.0 -54.0 -39.0 66.0
519 356 35 1.0 -54.0 -39.0 81.0
520 357 35 1.0 -54.0 -24.0 -84.0
521 358 35 1.0 -54.0 -24.0 -69.0
522 359 35 1.0 -54.0 -24.0 -54.0
523 360 35 1.0 -54.0 -24.0 -39.0
524 361 35 1.0 -54.0 -24.0 -24.0
525 362 35 1.0 -54.0 -24.0 -9.0
526 363 35 1.0 -54.0 -24.0 6.0
527 364 35 1.0 -54.0 -24.0 21.0
528 365 35 1.0 -54.0 -24.0 36.0
529 366 35 1.0 -54.0 -24.0 51.0
530 367 35 1.0 -54.0 -24.0 66.0
531 368 35 1.0 -54.0 -24.0 81.0
532 369 35 1.0 -54.0 -9.0 -84.0
533 370 35 1.0 -54.0 -9.0 -69.0
534 371 35 1.0 -54.0 -9.0 -54.0
535 372 35 1.0 -54.0 -9.0 -39.0
536 373 35 1.0 -54.0 -9.0 -24.0
537 374 35 1.0 -54.0 -9.0 -9.0
538 375 35 1.0 -54.0 -9.0 6.0
539 376 35 1.0 -54.0 -9.0 21.0
540 377 35 1.0 -54.0 -9.0 36.0
541 378 35 1.0 -54.0 -9.0 51.0
542 379 35 1.0 -54.0 -9.0 66.0
543 380 35 1.0 -54.0 -9.0 81.0
544 381 35 1.0 -54.0 6.0 -84.0
545 382 35 1.0 -54.0 6.0 -69.0
546 383 35 1.0 -54.0 6.0 -54.0
547 384 35 1.0 -54.0 6.0 -39.0
548 385 35 1.0 -54.0 6.0 -24.0
549 386 35 1.0 -54.0 6.0 -9.0
550 387 35 1.0 -54.0 6.0 6.0
551 388 35 1.0 -54.0 6.0 21.0
552 389 35 1.0 -54.0 6.0 36.0
553 390 35 1.0 -54.0 6.0 51.0
554 391 35 1.0 -54.0 6.0 66.0
555 392 35 1.0 -54.0 6.0 81.0
556 393 35 1.0 -54.0 21.0 -84.0
557 394 35 1.0 -54.0 21.0 -69.0
558 395 35 1.0 -54.0 21.0 -54.0
559 396 35 1.0 -54.0 21.0 -39.0
560 397 35 1.0 -54.0 21.0 -24.0
561 398 35 1.0 -54.0 21.0 -9.0
562 399 35 1.0 -54.0 21.0 6.0
563 400 35 1.0 -54.0 21.0 21.0
564 401 35 1.0 -54.0 21.0 36.0
565 402 35 1.0 -54.0 21.0 51.0
566 403 35 1.0 -54.0 21.0 66.0
567 404 35 1.0 -54.0 21.0 81.0
568 405 35 1.0 -54.0 36.0 -84.0
569 406 35 1.0 -54.0 36.0 -69.0
570 407 35 1.0 -54.0 36.0 -54.0
571 408 35 1.0 -54.0 36.0 -39.0
572 409 35 1.0 -54.0 36.0 -24.0
573 410 35 1.0 -54.0 36.0 -9.0
574 411 35 1.0 -54.0 36.0 6.0
575 412 35 1.0 -54.0 36.0 21.0
576 413 35 1.0 -54.0 36.0 36.0
577 414 35 1.0 -54.0 36.0 51.0
578 415 35 1.0 -54.0 36.0 66.0
579 416 35 1.0 -54.0 36.0 81.0
580 417 35 1.0 -54.0 51.0 -84.0
581 418 35 1.0 -54.0 51.0 -69.0
582 419 35 1.0 -54.0 51.0 -54.0
583 420 35 1.0 -54.0 51.0 -39.0
584 421 35 1.0 -54.0 51.0 -24.0
585 422 35 1.0 -54.0 51.0 -9.0
586 423 35 1.0 -54.0 51.0 6.0
587 424 35 1.0 -54.0 51.0 21.0
588 425 35 1.0 -54.0 51.0 36.0
589 426 35 1.0 -54.0 51.0 51.0
590 427 35 1.0 -54.0 51.0 66.0
591 428 35 1.0 -54.0 51.0 81.0
592 429 35 1.0 -54.0 66.0 -84.0
593 430 35 1.0 -54.0 66.0 -69.0
594 431 35 1.0 -54.0 66.0 -54.0
595 432 35 1.0 -54.0 66.0 -39.0
596 433 35 1.0 -54.0 66.0 -24.0
597 434 35 1.0 -54.0 66.0 -9.0
598 435 35 1.0 -54.0 66.0 6.0
599 436 35 1.0 -54.0 66.0 21.0
600 437 35 1.0 -54.0 66.0 36.0
601 438 35 1.0 -54.0 66.0 51.0
602 439 35 1.0 -54.0 66.0 66.0
603 440 35 1.0 -54.0 66.0 81.0
604 441 35 1.0 -54.0 81.0 -84.0
605 442 35 1.0 -54.0 81.0 -69.0
606 443 35 1.0 -54.0 81.0 -54.0
607 444 35 1.0 -54.0 81.0 -39.0
608 445 35 1.0 -54.0 81.0 -24.0
609 446 35 1.0 -54.0 81.0 -9.0
610 447 35 1.0 -54.0 81.0 6.0
611 448 35 1.0 -54.0 81.0 21.0
612 449 35 1.0 -54.0 81.0 36.0
613 450 35 1.0 -54.0 81.0 51.0
614 451 35 1.0 -54.0 81.0 66.0
615 452 35 1.0 -54.0 81.0 81.0
616 453 35 1.0 -39.0 -84.0 -84.0
617 454 35 1.0 -39.0 -84.0 -69.0
618 455 35 1.0 -39.0 -84.0 -54.0
619 456 35 1.0 -39.0 -84.0 -39.0
620 457 35 1.0 -39.0 -84.0 -24.0
621 458 35 1.0 -39.0 -84.0 -9.0
622 459 35 1.0 -39.0 -84.0 6.0
623 460 35 1.0 -39.0 -84.0 21.0
624 461 35 1.0 -39.0 -84.0 36.0
625 462 35 1.0 -39.0 -84.0 51.0
626 463 35 1.0 -39.0 -84.0 66.0
627 464 35 1.0 -39.0 -84.0 81.0
628 465 35 1.0 -39.0 -69.0 -84.0
629 466 35 1.0 -39.0 -69.0 -69.0
630 467 35 1.0 -39.0 -69.0 -54.0
631 468 35 1.0 -39.0 -69.0 -39.0
632 469 35 1.0 -39.0 -69.0 -24.0
633 470 35 1.0 -39.0 -69.0 -9.0
634 471 35 1.0 -39.0 -69.0 6.0
635 472 35 1.0 -39.0 -69.0 21.0
636 473 35 1.0 -39.0 -69.0 36.0
637 474 35 1.0 -39.0 -69.0 51.0
638 475 35 1.0 -39.0 -69.0 66.0
639 476 35 1.0 -39.0 -69.0 81.0
640 477 35 1.0 -39.0 -54.0 -84.0
641 478 35 1.0 -39.0 -54.0 -69.0
642 479 35 1.0 -39.0 -54.0 -54.0
643 480 35 1.0 -39.0 -54.0 -39.0
644 481 35 1.0 -39.0 -54.0 -24.0
645 482 35 1.0 -39.0 -54.0 -9.0
646 483 35 1.0 -39.0 -54.0 6.0
647 484 35 1.0 -39.0 -54.0 21.0
648 485 35 1.0 -39.0 -54.0 36.0
649 486 35 1.0 -39.0 -54.0 51.0
650 487 35 1.0 -39.0 -54.0 66.0
651 488 35 1.0 -39.0 -54.0 81.0
652 489 35 1.0 -39.0 -39.0 -84.0
653 490 35 1.0 -39.0 -39.0 -69.0
654 491 35 1.0 -39.0 -39.0 -54.0
655 492 35 1.0 -39.0 -39.0 -39.0
656 493 35 1.0 -39.0 -39.0 -24.0
657 494 35 1.0 -39.0 -39.0 -9.0
658 495 35 1.0 -39.0 -39.0 6.0
659 496 35 1.0 -39.0 -39.0 21.0
660 497 35 1.0 -39.0 -39.0 36.0
661 498 35 1.0 -39.0 -39.0 51.0
662 499 35 1.0 -39.0 -39.0 66.0
663 500 35 1.0 -39.0 -39.0 81.0
664 501 35 1.0 -39.0 -24.0 -84.0
665 502 35 1.0 -39.0 -24.0 -69.0
666 503 35 1.0 -39.0 -24.0 -54.0