protein dna data file produced on: Mon Dec  2 18:18:03 2019

183 atoms
180 bonds
255 angles
212 dihedrals

34 atom types
2 bond types
18 angle types
2 dihedral types

-1000.000000 1000.000000 xlo xhi
-1000.000000 1000.000000 ylo yhi
-1000.000000 1000.000000 zlo zhi

Masses

   1   94.9696
   2   83.1104
   3  134.1220
   4  125.1078
   5  150.1214
   6  110.0964
   7  134.1220
   8  125.1078
   9  150.1214
  10  110.0964
  11  134.1220
  12  125.1078
  13  150.1214
  14  110.0964
  15   71.0788
  16  156.1875
  17  114.1038
  18  115.0886
  19  103.1388
  20  129.1155
  21  128.1307
  22   57.0519
  23  137.1411
  24  113.1594
  25  113.1594
  26  128.1741
  27  131.1926
  28  147.1766
  29   97.1167
  30   87.0782
  31  101.1051
  32  186.2132
  33  163.1760
  34   99.1326

Atoms

      1       1      33    0.0000 -1.680000e+00  3.490000e+00  4.332000e+01
      2       1      16    1.0000 -2.840000e+00  5.610000e+00  4.027000e+01
      3       1      22    0.0000 -1.160000e+00  8.160000e+00  3.791000e+01
      4       1      23    0.0000 -1.960000e+00  1.163000e+01  3.636000e+01
      5       1      16    1.0000  1.000000e-01  1.455000e+01  3.660000e+01
      6       1      28    0.0000 -2.000000e-01  1.772000e+01  3.860000e+01
      7       1      31    0.0000 -5.600000e-01  2.102000e+01  3.679000e+01
      8       1      26    1.0000  2.820000e+00  2.270000e+01  3.586000e+01
      9       1      20   -1.0000  2.400000e+00  2.562000e+01  3.832000e+01
     10       1      17    0.0000  2.050000e+00  2.297000e+01  4.106000e+01
     11       1      34    0.0000  5.040000e+00  2.077000e+01  4.024000e+01
     12       1      16    1.0000  6.850000e+00  2.411000e+01  4.000000e+01
     13       1      24    0.0000  5.980000e+00  2.528000e+01  4.350000e+01
     14       1      25    0.0000  6.450000e+00  2.185000e+01  4.506000e+01
     15       1      20   -1.0000  9.890000e+00  2.169000e+01  4.340000e+01
     16       1      30    0.0000  1.068000e+01  2.515000e+01  4.461000e+01
     17       1      32    0.0000  9.940000e+00  2.414000e+01  4.813000e+01
     18       1      28    0.0000  1.207000e+01  2.099000e+01  4.806000e+01
     19       1      15    0.0000  1.506000e+01  2.294000e+01  4.659000e+01
     20       1      26    1.0000  1.482000e+01  2.594000e+01  4.902000e+01
     21       1      17    0.0000  1.464000e+01  2.312000e+01  5.162000e+01
     22       1      24    0.0000  1.725000e+01  2.035000e+01  5.068000e+01
     23       1      20   -1.0000  1.905000e+01  2.031000e+01  5.410000e+01
     24       1      17    0.0000  1.605000e+01  1.887000e+01  5.588000e+01
     25       1      29    0.0000  1.306000e+01  1.864000e+01  5.336000e+01
     26       1      33    0.0000  1.043000e+01  1.746000e+01  5.577000e+01
     27       1      25    0.0000  7.170000e+00  1.941000e+01  5.577000e+01
     28       1      18   -1.0000  6.310000e+00  2.129000e+01  5.902000e+01
     29       1      31    0.0000  3.080000e+00  2.285000e+01  6.023000e+01
     30       1      26    1.0000  3.510000e+00  2.633000e+01  5.877000e+01
     31       1      22    0.0000  5.260000e+00  2.480000e+01  5.581000e+01
     32       1      25    0.0000  2.340000e+00  2.255000e+01  5.480000e+01
     33       1      20   -1.0000 -1.200000e-01  2.534000e+01  5.520000e+01
     34       1      17    0.0000  1.650000e+00  2.757000e+01  5.270000e+01
     35       1      25    0.0000  1.930000e+00  2.495000e+01  5.002000e+01
     36       1      27    0.0000 -1.730000e+00  2.410000e+01  5.077000e+01
     37       1      26    1.0000 -2.430000e+00  2.781000e+01  5.041000e+01
     38       1      17    0.0000 -5.400000e-01  2.768000e+01  4.707000e+01
     39       1      31    0.0000 -1.820000e+00  2.455000e+01  4.535000e+01
     40       1      30    0.0000 -5.010000e+00  2.287000e+01  4.437000e+01
     41       1      25    0.0000 -3.650000e+00  1.962000e+01  4.607000e+01
     42       1      30    0.0000 -5.340000e+00  1.773000e+01  4.890000e+01
     43       1      16    1.0000 -2.890000e+00  1.778000e+01  5.195000e+01
     44       1      24    0.0000 -2.380000e+00  1.392000e+01  5.156000e+01
     45       1      21    0.0000 -1.110000e+00  1.458000e+01  4.805000e+01
     46       1      24    0.0000  1.490000e+00  1.711000e+01  4.925000e+01
     47       1      26    1.0000  2.560000e+00  1.476000e+01  5.200000e+01
     48       1      17    0.0000  2.920000e+00  1.206000e+01  4.944000e+01
     49       1      32    0.0000  4.790000e+00  1.420000e+01  4.688000e+01
     50       1      34    0.0000  7.460000e+00  1.543000e+01  4.930000e+01
     51       1      30    0.0000  8.050000e+00  1.178000e+01  5.050000e+01
     52       1      17    0.0000  8.230000e+00  1.040000e+01  4.693000e+01
     53       1      16    1.0000  1.047000e+01  1.338000e+01  4.600000e+01
     54       1      16    1.0000  1.292000e+01  1.236000e+01  4.873000e+01
     55       1      16    1.0000  1.307000e+01  8.780000e+00  4.738000e+01
     56       1      26    1.0000  1.403000e+01  1.038000e+01  4.401000e+01
     57       1      20   -1.0000  1.675000e+01  1.258000e+01  4.545000e+01
     58       1      26    1.0000  1.799000e+01  9.280000e+00  4.703000e+01
     59       1      31    0.0000  1.912000e+01  8.400000e+00  4.349000e+01
     60       2       2    0.0000  4.721025e+01  6.611468e+00 -7.686480e-01
     61       2       7    0.0000  4.955984e+01  2.425299e+00  1.221300e-02
     62       2       1   -1.0000  4.526689e+01  7.366864e+00  1.413629e+00
     63       2       2    0.0000  4.461161e+01  3.868585e+00  2.439399e+00
     64       2       6    0.0000  4.848609e+01  2.206975e+00  3.284253e+00
     65       2       1   -1.0000  4.163026e+01  3.086495e+00  5.559634e+00
     66       2       2    0.0000  4.307006e+01 -2.280380e-01  6.574417e+00
     67       2       3    0.0000  4.789070e+01  3.140070e-01  6.923878e+00
     68       2       1   -1.0000  4.182198e+01 -1.817133e+00  9.166918e+00
     69       2       2    0.0000  4.489929e+01 -3.805392e+00  9.860574e+00
     70       2       4    0.0000  4.776632e+01 -5.358250e-01  1.037456e+01
     71       2       1   -1.0000  4.444535e+01 -6.305540e+00  1.344229e+01
     72       2       2    0.0000  4.806562e+01 -6.222168e+00  1.427702e+01
     73       2       5    0.0000  4.992272e+01 -1.619212e+00  1.396156e+01
     74       2       1   -1.0000  4.945823e+01 -7.895408e+00  1.673726e+01
     75       2       2    0.0000  5.259302e+01 -5.840299e+00  1.702838e+01
     76       2       4    0.0000  5.075212e+01 -1.878269e+00  1.731905e+01
     77       2       1   -1.0000  5.518505e+01 -6.751134e+00  2.019369e+01
     78       2       2    0.0000  5.654653e+01 -3.268932e+00  2.050380e+01
     79       2       3    0.0000  5.281278e+01 -1.523370e-01  2.048506e+01
     80       2       1   -1.0000  5.920646e+01 -2.396244e+00  2.290134e+01
     81       2       2    0.0000  5.832610e+01  1.240992e+00  2.303384e+01
     82       2       3    0.0000  5.350257e+01  1.673142e+00  2.348200e+01
     83       2       1   -1.0000  5.993366e+01  3.109358e+00  2.520883e+01
     84       2       2    0.0000  5.728641e+01  5.726345e+00  2.543103e+01
     85       2       4    0.0000  5.390614e+01  3.226333e+00  2.665506e+01
     86       2       1   -1.0000  5.784674e+01  8.799192e+00  2.771647e+01
     87       2       2    0.0000  5.419140e+01  9.529791e+00  2.820149e+01
     88       2       4    0.0000  5.294739e+01  5.587688e+00  2.964566e+01
     89       2       1   -1.0000  5.351995e+01  1.235570e+01  3.050540e+01
     90       2       2    0.0000  5.023490e+01  1.098313e+01  3.155060e+01
     91       2       6    0.0000  5.114227e+01  6.964396e+00  3.278042e+01
     92       2       1   -1.0000  4.765157e+01  1.315289e+01  3.435272e+01
     93       2       2    0.0000  4.577886e+01  1.011078e+01  3.550472e+01
     94       2       3    0.0000  4.904713e+01  6.607140e+00  3.633972e+01
     95       2       1   -1.0000  4.360502e+01  1.037142e+01  3.795674e+01
     96       2       2    0.0000  4.378701e+01  6.783654e+00  3.895535e+01
     97       2       4    0.0000  4.808047e+01  6.478698e+00  3.975930e+01
     98       2       1   -1.0000  4.157335e+01  5.512329e+00  4.186485e+01
     99       2       2    0.0000  4.379469e+01  2.607026e+00  4.273436e+01
    100       2       4    0.0000  4.753631e+01  4.816013e+00  4.327762e+01
    101       2       1   -1.0000  4.294376e+01  2.538170e-01  4.568747e+01
    102       2       2    0.0000  4.648816e+01 -8.565340e-01  4.626632e+01
    103       2       4    0.0000  4.831950e+01  3.094817e+00  4.672168e+01
    104       2       1   -1.0000  4.730420e+01 -3.487201e+00  4.942572e+01
    105       2       2    0.0000  5.082610e+01 -2.297353e+00  4.993064e+01
    106       2       3    0.0000  5.080941e+01  2.565941e+00  5.000365e+01
    107       2       1   -1.0000  5.226236e+01 -3.565980e+00  5.226242e+01
    108       2       2    0.0000  5.455985e+01 -7.066650e-01  5.277631e+01
    109       2       6    0.0000  5.199856e+01  2.715924e+00  5.323919e+01
    110       2       1   -1.0000  5.768481e+01 -1.007875e+00  5.583867e+01
    111       2       2    0.0000  5.805734e+01  2.698410e+00  5.630195e+01
    112       2       3    0.0000  5.358798e+01  4.597502e+00  5.657343e+01
    113       2       1   -1.0000  5.989484e+01  3.528975e+00  5.854768e+01
    114       2       2    0.0000  5.819521e+01  6.768743e+00  5.912720e+01
    115       2       6    0.0000  5.406723e+01  5.763257e+00  5.978574e+01
    116       2       1   -1.0000  6.023636e+01  9.354944e+00  6.244538e+01
    117       2       2    0.0000  5.711896e+01  1.119914e+01  6.312853e+01
    118       2       5    0.0000  5.325506e+01  8.076739e+00  6.336316e+01
    119       2       1   -1.0000  5.709983e+01  1.382456e+01  6.505480e+01
    120       2       2    0.0000  5.346595e+01  1.354252e+01  6.569309e+01
    121       2      14    0.0000  5.294082e+01  9.355106e+00  6.651688e+01
    122       3       2    0.0000  4.437487e+01  3.597504e+00  6.637537e+01
    123       3       9    0.0000  4.893249e+01  5.580073e+00  6.619454e+01
    124       3       1   -1.0000  4.213672e+01  4.682528e+00  6.427376e+01
    125       3       2    0.0000  4.408631e+01  7.731538e+00  6.350485e+01
    126       3       6    0.0000  4.807559e+01  6.226317e+00  6.294987e+01
    127       3       1   -1.0000  4.232834e+01  1.024530e+01  5.997576e+01
    128       3       2    0.0000  4.562668e+01  1.167172e+01  5.915747e+01
    129       3       5    0.0000  4.912148e+01  8.133612e+00  5.919813e+01
    130       3       1   -1.0000  4.621220e+01  1.388891e+01  5.680512e+01
    131       3       2    0.0000  4.989012e+01  1.322410e+01  5.639595e+01
    132       3       4    0.0000  4.971384e+01  8.881517e+00  5.586367e+01
    133       3       1   -1.0000  5.153144e+01  1.534233e+01  5.291680e+01
    134       3       2    0.0000  5.412604e+01  1.276750e+01  5.224604e+01
    135       3       5    0.0000  5.224619e+01  8.166679e+00  5.243355e+01
    136       3       1   -1.0000  5.644576e+01  1.300663e+01  4.993266e+01
    137       3       2    0.0000  5.728970e+01  9.350558e+00  4.969116e+01
    138       3       4    0.0000  5.323987e+01  7.780967e+00  4.913332e+01
    139       3       1   -1.0000  5.998721e+01  8.208402e+00  4.669397e+01
    140       3       2    0.0000  5.857015e+01  4.758886e+00  4.628568e+01
    141       3       3    0.0000  5.372852e+01  5.112253e+00  4.598866e+01
    142       3       1   -1.0000  6.002930e+01  2.286424e+00  4.396848e+01
    143       3       2    0.0000  5.688381e+01  2.835300e-01  4.362222e+01
    144       3       3    0.0000  5.315230e+01  3.328208e+00  4.294231e+01
    145       3       1   -1.0000  5.678255e+01 -2.704672e+00  4.146029e+01
    146       3       2    0.0000  5.308321e+01 -2.560742e+00  4.089655e+01
    147       3       3    0.0000  5.182699e+01  2.027694e+00  3.988505e+01
    148       3       1   -1.0000  5.179415e+01 -4.688712e+00  3.874772e+01
    149       3       2    0.0000  4.877786e+01 -2.629019e+00  3.799683e+01
    150       3       4    0.0000  5.073654e+01  1.046862e+00  3.664574e+01
    151       3       1   -1.0000  4.626024e+01 -4.495463e+00  3.492089e+01
    152       3       2    0.0000  4.495890e+01 -1.254971e+00  3.364980e+01
    153       3       5    0.0000  4.860000e+01  2.076032e+00  3.303110e+01
    154       3       1   -1.0000  4.213736e+01 -9.495270e-01  3.122085e+01
    155       3       2    0.0000  4.303037e+01  2.511425e+00  3.012001e+01
    156       3       3    0.0000  4.786731e+01  2.749266e+00  2.966943e+01
    157       3       1   -1.0000  4.119462e+01  4.152330e+00  2.737226e+01
    158       3       2    0.0000  4.401765e+01  6.419888e+00  2.641684e+01
    159       3       3    0.0000  4.813104e+01  3.828543e+00  2.626924e+01
    160       3       1   -1.0000  4.363301e+01  8.266720e+00  2.372450e+01
    161       3       2    0.0000  4.728102e+01  8.691382e+00  2.307958e+01
    162       3       4    0.0000  4.845353e+01  4.482448e+00  2.278894e+01
    163       3       1   -1.0000  4.843628e+01  1.083335e+01  2.007554e+01
    164       3       2    0.0000  5.177759e+01  9.147248e+00  1.972847e+01
    165       3       4    0.0000  5.036675e+01  5.014944e+00  1.939863e+01
    166       3       1   -1.0000  5.433637e+01  1.032686e+01  1.662549e+01
    167       3       2    0.0000  5.606005e+01  7.006048e+00  1.635299e+01
    168       3       3    0.0000  5.267192e+01  3.517355e+00  1.628531e+01
    169       3       1   -1.0000  5.807950e+01  6.814569e+00  1.411790e+01
    170       3       2    0.0000  5.776483e+01  3.141521e+00  1.375874e+01
    171       3       6    0.0000  5.356979e+01  2.435017e+00  1.313419e+01
    172       3       1   -1.0000  6.035709e+01  1.049942e+00  1.090580e+01
    173       3       2    0.0000  5.807052e+01 -1.894950e+00  1.047317e+01
    174       3       3    0.0000  5.355615e+01 -1.743700e-01  9.912971e+00
    175       3       1   -1.0000  5.879185e+01 -4.199275e+00  8.242090e+00
    176       3       2    0.0000  5.528311e+01 -5.397925e+00  7.845024e+00
    177       3       4    0.0000  5.336742e+01 -1.637466e+00  6.677687e+00
    178       3       1   -1.0000  5.497447e+01 -8.534758e+00  4.787556e+00
    179       3       2    0.0000  5.148482e+01 -7.653105e+00  3.862958e+00
    180       3       5    0.0000  5.091486e+01 -2.745134e+00  3.294292e+00
    181       3       1   -1.0000  4.964096e+01 -9.317209e+00  1.713019e+00
    182       3       2    0.0000  4.715188e+01 -6.596525e+00  9.779680e-01
    183       3      12    0.0000  4.996435e+01 -3.380030e+00  1.981600e-02

Bonds

      1       1      60      61
      2       1      60      62
      3       1      62      63
      4       1      63      64
      5       1      63      65
      6       1      65      66
      7       1      66      67
      8       1      66      68
      9       1      68      69
     10       1      69      70
     11       1      69      71
     12       1      71      72
     13       1      72      73
     14       1      72      74
     15       1      74      75
     16       1      75      76
     17       1      75      77
     18       1      77      78
     19       1      78      79
     20       1      78      80
     21       1      80      81
     22       1      81      82
     23       1      81      83
     24       1      83      84
     25       1      84      85
     26       1      84      86
     27       1      86      87
     28       1      87      88
     29       1      87      89
     30       1      89      90
     31       1      90      91
     32       1      90      92
     33       1      92      93
     34       1      93      94
     35       1      93      95
     36       1      95      96
     37       1      96      97
     38       1      96      98
     39       1      98      99
     40       1      99     100
     41       1      99     101
     42       1     101     102
     43       1     102     103
     44       1     102     104
     45       1     104     105
     46       1     105     106
     47       1     105     107
     48       1     107     108
     49       1     108     109
     50       1     108     110
     51       1     110     111
     52       1     111     112
     53       1     111     113
     54       1     113     114
     55       1     114     115
     56       1     114     116
     57       1     116     117
     58       1     117     118
     59       1     117     119
     60       1     119     120
     61       1     120     121
     62       1     122     123
     63       1     122     124
     64       1     124     125
     65       1     125     126
     66       1     125     127
     67       1     127     128
     68       1     128     129
     69       1     128     130
     70       1     130     131
     71       1     131     132
     72       1     131     133
     73       1     133     134
     74       1     134     135
     75       1     134     136
     76       1     136     137
     77       1     137     138
     78       1     137     139
     79       1     139     140
     80       1     140     141
     81       1     140     142
     82       1     142     143
     83       1     143     144
     84       1     143     145
     85       1     145     146
     86       1     146     147
     87       1     146     148
     88       1     148     149
     89       1     149     150
     90       1     149     151
     91       1     151     152
     92       1     152     153
     93       1     152     154
     94       1     154     155
     95       1     155     156
     96       1     155     157
     97       1     157     158
     98       1     158     159
     99       1     158     160
    100       1     160     161
    101       1     161     162
    102       1     161     163
    103       1     163     164
    104       1     164     165
    105       1     164     166
    106       1     166     167
    107       1     167     168
    108       1     167     169
    109       1     169     170
    110       1     170     171
    111       1     170     172
    112       1     172     173
    113       1     173     174
    114       1     173     175
    115       1     175     176
    116       1     176     177
    117       1     176     178
    118       1     178     179
    119       1     179     180
    120       1     179     181
    121       1     181     182
    122       1     182     183
    123       2       1       2
    124       2       2       3
    125       2       3       4
    126       2       4       5
    127       2       5       6
    128       2       6       7
    129       2       7       8
    130       2       8       9
    131       2       9      10
    132       2      10      11
    133       2      11      12
    134       2      12      13
    135       2      13      14
    136       2      14      15
    137       2      15      16
    138       2      16      17
    139       2      17      18
    140       2      18      19
    141       2      19      20
    142       2      20      21
    143       2      21      22
    144       2      22      23
    145       2      23      24
    146       2      24      25
    147       2      25      26
    148       2      26      27
    149       2      27      28
    150       2      28      29
    151       2      29      30
    152       2      30      31
    153       2      31      32
    154       2      32      33
    155       2      33      34
    156       2      34      35
    157       2      35      36
    158       2      36      37
    159       2      37      38
    160       2      38      39
    161       2      39      40
    162       2      40      41
    163       2      41      42
    164       2      42      43
    165       2      43      44
    166       2      44      45
    167       2      45      46
    168       2      46      47
    169       2      47      48
    170       2      48      49
    171       2      49      50
    172       2      50      51
    173       2      51      52
    174       2      52      53
    175       2      53      54
    176       2      54      55
    177       2      55      56
    178       2      56      57
    179       2      57      58
    180       2      58      59

Angles

      1       1      61      60      62
      2       1      60      62      63
      3       1      62      63      64
      4       1      62      63      65
      5       1      64      63      65
      6       1      63      65      66
      7       1      65      66      67
      8       1      65      66      68
      9       1      67      66      68
     10       1      66      68      69
     11       1      68      69      70
     12       1      68      69      71
     13       1      70      69      71
     14       1      69      71      72
     15       1      71      72      73
     16       1      71      72      74
     17       1      73      72      74
     18       1      72      74      75
     19       1      74      75      76
     20       1      74      75      77
     21       1      76      75      77
     22       1      75      77      78
     23       1      77      78      79
     24       1      77      78      80
     25       1      79      78      80
     26       1      78      80      81
     27       1      80      81      82
     28       1      80      81      83
     29       1      82      81      83
     30       1      81      83      84
     31       1      83      84      85
     32       1      83      84      86
     33       1      85      84      86
     34       1      84      86      87
     35       1      86      87      88
     36       1      86      87      89
     37       1      88      87      89
     38       1      87      89      90
     39       1      89      90      91
     40       1      89      90      92
     41       1      91      90      92
     42       1      90      92      93
     43       1      92      93      94
     44       1      92      93      95
     45       1      94      93      95
     46       1      93      95      96
     47       1      95      96      97
     48       1      95      96      98
     49       1      97      96      98
     50       1      96      98      99
     51       1      98      99     100
     52       1      98      99     101
     53       1     100      99     101
     54       1      99     101     102
     55       1     101     102     103
     56       1     101     102     104
     57       1     103     102     104
     58       1     102     104     105
     59       1     104     105     106
     60       1     104     105     107
     61       1     106     105     107
     62       1     105     107     108
     63       1     107     108     109
     64       1     107     108     110
     65       1     109     108     110
     66       1     108     110     111
     67       1     110     111     112
     68       1     110     111     113
     69       1     112     111     113
     70       1     111     113     114
     71       1     113     114     115
     72       1     113     114     116
     73       1     115     114     116
     74       1     114     116     117
     75       1     116     117     118
     76       1     116     117     119
     77       1     118     117     119
     78       1     117     119     120
     79       1     119     120     121
     80       1     123     122     124
     81       1     122     124     125
     82       1     124     125     126
     83       1     124     125     127
     84       1     126     125     127
     85       1     125     127     128
     86       1     127     128     129
     87       1     127     128     130
     88       1     129     128     130
     89       1     128     130     131
     90       1     130     131     132
     91       1     130     131     133
     92       1     132     131     133
     93       1     131     133     134
     94       1     133     134     135
     95       1     133     134     136
     96       1     135     134     136
     97       1     134     136     137
     98       1     136     137     138
     99       1     136     137     139
    100       1     138     137     139
    101       1     137     139     140
    102       1     139     140     141
    103       1     139     140     142
    104       1     141     140     142
    105       1     140     142     143
    106       1     142     143     144
    107       1     142     143     145
    108       1     144     143     145
    109       1     143     145     146
    110       1     145     146     147
    111       1     145     146     148
    112       1     147     146     148
    113       1     146     148     149
    114       1     148     149     150
    115       1     148     149     151
    116       1     150     149     151
    117       1     149     151     152
    118       1     151     152     153
    119       1     151     152     154
    120       1     153     152     154
    121       1     152     154     155
    122       1     154     155     156
    123       1     154     155     157
    124       1     156     155     157
    125       1     155     157     158
    126       1     157     158     159
    127       1     157     158     160
    128       1     159     158     160
    129       1     158     160     161
    130       1     160     161     162
    131       1     160     161     163
    132       1     162     161     163
    133       1     161     163     164
    134       1     163     164     165
    135       1     163     164     166
    136       1     165     164     166
    137       1     164     166     167
    138       1     166     167     168
    139       1     166     167     169
    140       1     168     167     169
    141       1     167     169     170
    142       1     169     170     171
    143       1     169     170     172
    144       1     171     170     172
    145       1     170     172     173
    146       1     172     173     174
    147       1     172     173     175
    148       1     174     173     175
    149       1     173     175     176
    150       1     175     176     177
    151       1     175     176     178
    152       1     177     176     178
    153       1     176     178     179
    154       1     178     179     180
    155       1     178     179     181
    156       1     180     179     181
    157       1     179     181     182
    158       1     181     182     183
    159       5      60      61      64
    160      14      63      64      67
    161       3      66      67      70
    162       8      69      70      73
    163      11      72      73      76
    164       6      75      76      79
    165       2      78      79      82
    166       3      81      82      85
    167       7      84      85      88
    168       9      87      88      91
    169      14      90      91      94
    170       3      93      94      97
    171       7      96      97     100
    172       7      99     100     103
    173       6     102     103     106
    174       5     105     106     109
    175      14     108     109     112
    176       5     111     112     115
    177      16     114     115     118
    178      13     117     118     121
    179      13     122     123     126
    180      16     125     126     129
    181      11     128     129     132
    182       8     131     132     135
    183      11     134     135     138
    184       6     137     138     141
    185       2     140     141     144
    186       2     143     144     147
    187       3     146     147     150
    188       8     149     150     153
    189      10     152     153     156
    190       2     155     156     159
    191       3     158     159     162
    192       7     161     162     165
    193       6     164     165     168
    194       5     167     168     171
    195      14     170     171     174
    196       3     173     174     177
    197       8     176     177     180
    198      11     179     180     183
    199      18       1       2       3
    200      18       2       3       4
    201      18       3       4       5
    202      18       4       5       6
    203      18       5       6       7
    204      18       6       7       8
    205      18       7       8       9
    206      18       8       9      10
    207      18       9      10      11
    208      18      10      11      12
    209      18      11      12      13
    210      18      12      13      14
    211      18      13      14      15
    212      18      14      15      16
    213      18      15      16      17
    214      18      16      17      18
    215      18      17      18      19
    216      18      18      19      20
    217      18      19      20      21
    218      18      20      21      22
    219      18      21      22      23
    220      18      22      23      24
    221      18      23      24      25
    222      18      24      25      26
    223      18      25      26      27
    224      18      26      27      28
    225      18      27      28      29
    226      18      28      29      30
    227      18      29      30      31
    228      18      30      31      32
    229      18      31      32      33
    230      18      32      33      34
    231      18      33      34      35
    232      18      34      35      36
    233      18      35      36      37
    234      18      36      37      38
    235      18      37      38      39
    236      18      38      39      40
    237      18      39      40      41
    238      18      40      41      42