protein dna data file produced on: Tue Jul 30 19:13:58 2019

974 atoms
966 bonds
958 angles
680 dihedrals

20 atom types
1 bond types
1 angle types
1 dihedral types

-1000.000000 1000.000000 xlo xhi
-1000.000000 1000.000000 ylo yhi
-1000.000000 1000.000000 zlo zhi

Masses

   1   71.0788
   2  156.1875
   3  114.1038
   4  115.0886
   5  103.1388
   6  129.1155
   7  128.1307
   8   57.0519
   9  137.1411
  10  113.1594
  11  113.1594
  12  128.1741
  13  131.1926
  14  147.1766
  15   97.1167
  16   87.0782
  17  101.1051
  18  186.2132
  19  163.1760
  20   99.1326

Atoms

      1       1       1       1    0.0000 -3.183000000e+01 -5.330000000e+00 -6.630000000e+00
      2       1       2       2    1.0000 -3.287000000e+01 -2.020000000e+00 -8.200000000e+00
      3       1       3      17    0.0000 -3.136000000e+01 -4.000000000e-02 -1.109000000e+01
      4       1       4      12    1.0000 -3.073000000e+01 3.180000000e+00 -9.190000000e+00
      5       1       5       7    0.0000 -2.742000000e+01 3.840000000e+00 -7.430000000e+00
      6       1       6      17    0.0000 -2.575000000e+01 4.250000000e+00 -1.080000000e+01
      7       1       7       1    0.0000 -2.840000000e+01 5.130000000e+00 -1.338000000e+01
      8       1       8       2    1.0000 -2.510000000e+01 6.360000000e+00 -1.477000000e+01
      9       1       9      12    1.0000 -2.644000000e+01 6.450000000e+00 -1.833000000e+01
     10       1      10      16    0.0000 -2.484000000e+01 3.960000000e+00 -2.072000000e+01
     11       1      11      17    0.0000 -2.189000000e+01 5.850000000e+00 -2.218000000e+01
     12       1      12       8    0.0000 -2.057000000e+01 9.410000000e+00 -2.225000000e+01
     13       1      13       8    0.0000 -1.759000000e+01 1.081000000e+01 -2.040000000e+01
     14       1      14      12    1.0000 -1.908000000e+01 1.430000000e+01 -2.052000000e+01
     15       1      15       1    0.0000 -1.927000000e+01 1.592000000e+01 -1.708000000e+01
     16       1      16      15    0.0000 -2.175000000e+01 1.879000000e+01 -1.772000000e+01
     17       1      17       2    1.0000 -2.430000000e+01 1.602000000e+01 -1.826000000e+01
     18       1      18      12    1.0000 -2.786000000e+01 1.595000000e+01 -1.961000000e+01
     19       1      19       7    0.0000 -2.869000000e+01 1.966000000e+01 -1.920000000e+01
     20       1      20      11    0.0000 -2.690000000e+01 2.269000000e+01 -2.068000000e+01
     21       1      21       1    0.0000 -2.319000000e+01 2.343000000e+01 -2.021000000e+01
     22       1      22      17    0.0000 -2.054000000e+01 2.164000000e+01 -2.226000000e+01
     23       1      23      12    1.0000 -1.708000000e+01 2.218000000e+01 -2.077000000e+01
     24       1      24       1    0.0000 -1.394000000e+01 2.005000000e+01 -2.111000000e+01
     25       1      25       1    0.0000 -1.443000000e+01 1.855000000e+01 -1.766000000e+01
     26       1      26       2    1.0000 -1.391000000e+01 1.484000000e+01 -1.701000000e+01
     27       1      27      12    1.0000 -1.222000000e+01 1.389000000e+01 -1.372000000e+01
     28       1      28      16    0.0000 -9.440000000e+00 1.635000000e+01 -1.291000000e+01
     29       1      29       1    0.0000 -9.690000000e+00 2.010000000e+01 -1.233000000e+01
     30       1      30      15    0.0000 -1.232000000e+01 2.196000000e+01 -1.440000000e+01
     31       1      31       1    0.0000 -1.142000000e+01 2.498000000e+01 -1.226000000e+01
     32       1      32      17    0.0000 -8.090000000e+00 2.682000000e+01 -1.218000000e+01
     33       1      33       8    0.0000 -5.660000000e+00 2.619000000e+01 -9.340000000e+00
     34       1      34       8    0.0000 -4.740000000e+00 2.285000000e+01 -7.800000000e+00
     35       1      35      20    0.0000 -4.820000000e+00 1.916000000e+01 -8.700000000e+00
     36       1      36      12    1.0000 -4.710000000e+00 1.670000000e+01 -5.730000000e+00
     37       1      37      12    1.0000 -1.270000000e+00 1.506000000e+01 -5.840000000e+00
     38       1      38      15    0.0000 -4.100000000e-01 1.469000000e+01 -9.550000000e+00
     39       1      39       9    0.0000 1.770000000e+00 1.176000000e+01 -1.058000000e+01
     40       1      40       2    1.0000 5.530000000e+00 1.193000000e+01 -1.004000000e+01
     41       1      41      19    0.0000 8.230000000e+00 9.300000000e+00 -1.053000000e+01
     42       1      42       2    1.0000 1.092000000e+01 9.360000000e+00 -7.840000000e+00
     43       1      43      15    0.0000 1.431000000e+01 1.101000000e+01 -8.530000000e+00
     44       1      44       8    0.0000 1.637000000e+01 8.340000000e+00 -1.027000000e+01
     45       1      45      17    0.0000 1.351000000e+01 6.350000000e+00 -1.176000000e+01
     46       1      46      20    0.0000 1.349000000e+01 8.320000000e+00 -1.500000000e+01
     47       1      47       1    0.0000 1.730000000e+01 8.550000000e+00 -1.511000000e+01
     48       1      48      11    0.0000 1.735000000e+01 4.710000000e+00 -1.501000000e+01
     49       1      49       2    1.0000 1.469000000e+01 4.560000000e+00 -1.773000000e+01
     50       1      50       6   -1.0000 1.688000000e+01 6.830000000e+00 -1.992000000e+01
     51       1      51      10    0.0000 2.000000000e+01 4.730000000e+00 -1.934000000e+01
     52       1      52       2    1.0000 1.805000000e+01 1.670000000e+00 -2.053000000e+01
     53       1      53       2    1.0000 1.660000000e+01 3.540000000e+00 -2.353000000e+01
     54       1      54      19    0.0000 1.995000000e+01 4.880000000e+00 -2.472000000e+01
     55       1      55       7    0.0000 2.194000000e+01 1.720000000e+00 -2.411000000e+01
     56       1      56      12    1.0000 1.951000000e+01 -8.000000000e-02 -2.635000000e+01
     57       1      57      16    0.0000 1.977000000e+01 2.350000000e+00 -2.928000000e+01
     58       1      58      17    0.0000 2.267000000e+01 3.400000000e+00 -3.150000000e+01
     59       1      59       6   -1.0000 2.155000000e+01 6.780000000e+00 -3.285000000e+01
     60       1      60      11    0.0000 2.391000000e+01 9.720000000e+00 -3.248000000e+01
     61       1      61      11    0.0000 2.302000000e+01 1.179000000e+01 -2.941000000e+01
     62       1      62      10    0.0000 2.445000000e+01 1.523000000e+01 -3.020000000e+01
     63       1      63       2    1.0000 2.246000000e+01 1.731000000e+01 -3.276000000e+01
     64       1      64      12    1.0000 2.392000000e+01 1.721000000e+01 -3.627000000e+01
     65       1      65      11    0.0000 2.404000000e+01 2.091000000e+01 -3.718000000e+01
     66       1      66      15    0.0000 2.548000000e+01 2.217000000e+01 -3.391000000e+01
     67       1      67      14    0.0000 2.815000000e+01 1.945000000e+01 -3.418000000e+01
     68       1      68       7    0.0000 2.895000000e+01 2.029000000e+01 -3.777000000e+01
     69       1      69       2    1.0000 2.941000000e+01 2.393000000e+01 -3.676000000e+01
     70       1      70      11    0.0000 3.181000000e+01 2.303000000e+01 -3.398000000e+01
     71       1      71      20    0.0000 3.390000000e+01 2.088000000e+01 -3.632000000e+01
     72       1      72       2    1.0000 3.414000000e+01 2.358000000e+01 -3.902000000e+01
     73       1      73       6   -1.0000 3.508000000e+01 2.618000000e+01 -3.642000000e+01
     74       1      74      10    0.0000 3.787000000e+01 2.403000000e+01 -3.498000000e+01
     75       1      75       1    0.0000 3.922000000e+01 2.315000000e+01 -3.844000000e+01
     76       1      76       7    0.0000 3.924000000e+01 2.683000000e+01 -3.951000000e+01
     77       1      77       4   -1.0000 4.192000000e+01 2.732000000e+01 -3.683000000e+01
     78       1      78      14    0.0000 4.426000000e+01 2.496000000e+01 -3.869000000e+01
     79       1      79      12    1.0000 4.341000000e+01 2.577000000e+01 -4.230000000e+01
     80       1      80      17    0.0000 4.092000000e+01 2.832000000e+01 -4.362000000e+01
     81       1      81       4   -1.0000 3.840000000e+01 2.776000000e+01 -4.638000000e+01
     82       1      82      11    0.0000 3.811000000e+01 2.402000000e+01 -4.600000000e+01
     83       1      83       2    1.0000 3.519000000e+01 2.198000000e+01 -4.721000000e+01
     84       1      84      14    0.0000 3.416000000e+01 1.865000000e+01 -4.560000000e+01
     85       1      85       7    0.0000 3.274000000e+01 1.552000000e+01 -4.715000000e+01
     86       1      86      16    0.0000 2.947000000e+01 1.480000000e+01 -4.530000000e+01
     87       1      87      16    0.0000 3.089000000e+01 1.141000000e+01 -4.420000000e+01
     88       1      88       1    0.0000 3.398000000e+01 1.318000000e+01 -4.273000000e+01
     89       1      89      20    0.0000 3.175000000e+01 1.505000000e+01 -4.035000000e+01
     90       1      90      13    0.0000 2.977000000e+01 1.190000000e+01 -3.958000000e+01
     91       1      91       1    0.0000 3.299000000e+01 9.940000000e+00 -3.892000000e+01
     92       1      92      11    0.0000 3.407000000e+01 1.265000000e+01 -3.648000000e+01
     93       1      93       7    0.0000 3.070000000e+01 1.256000000e+01 -3.473000000e+01
     94       1      94       6   -1.0000 3.065000000e+01 8.750000000e+00 -3.447000000e+01
     95       1      95       1    0.0000 3.420000000e+01 8.840000000e+00 -3.304000000e+01
     96       1      96      16    0.0000 3.350000000e+01 1.176000000e+01 -3.067000000e+01
     97       1      97       6   -1.0000 3.035000000e+01 1.023000000e+01 -2.927000000e+01
     98       1      98       1    0.0000 3.193000000e+01 6.800000000e+00 -2.880000000e+01
     99       1      99      19    0.0000 3.484000000e+01 8.520000000e+00 -2.702000000e+01
    100       1     100      11    0.0000 3.256000000e+01 1.048000000e+01 -2.469000000e+01
    101       1     101      20    0.0000 3.030000000e+01 7.580000000e+00 -2.388000000e+01
    102       1     102       1    0.0000 3.329000000e+01 5.360000000e+00 -2.297000000e+01
    103       1     103      11    0.0000 3.476000000e+01 8.220000000e+00 -2.092000000e+01
    104       1     104      14    0.0000 3.146000000e+01 8.550000000e+00 -1.902000000e+01
    105       1     105       6   -1.0000 3.159000000e+01 4.830000000e+00 -1.823000000e+01
    106       1     106       4   -1.0000 3.508000000e+01 5.340000000e+00 -1.668000000e+01
    107       1     107      17    0.0000 3.400000000e+01 8.570000000e+00 -1.496000000e+01
    108       1     108       3    0.0000 3.106000000e+01 6.610000000e+00 -1.346000000e+01
    109       1     109      11    0.0000 3.340000000e+01 3.950000000e+00 -1.208000000e+01
    110       1     110       5    0.0000 3.544000000e+01 6.770000000e+00 -1.045000000e+01
    111       1     111       1    0.0000 3.232000000e+01 8.280000000e+00 -8.810000000e+00
    112       1     112      10    0.0000 3.124000000e+01 4.910000000e+00 -7.480000000e+00
    113       1     113       9    0.0000 3.479000000e+01 4.300000000e+00 -6.250000000e+00
    114       1     114       1    0.0000 3.435000000e+01 7.390000000e+00 -4.070000000e+00
    115       1     115      12    1.0000 3.101000000e+01 6.030000000e+00 -2.790000000e+00
    116       1     116       2    1.0000 2.899000000e+01 8.500000000e+00 -4.860000000e+00
    117       1     117      20    0.0000 2.639000000e+01 8.000000000e+00 -7.580000000e+00
    118       1     118      17    0.0000 2.681000000e+01 1.151000000e+01 -8.960000000e+00
    119       1     119      10    0.0000 2.960000000e+01 1.209000000e+01 -1.147000000e+01
    120       1     120      13    0.0000 3.171000000e+01 1.516000000e+01 -1.090000000e+01
    121       1     121      15    0.0000 3.452000000e+01 1.695000000e+01 -1.280000000e+01
    122       1     122      12    1.0000 3.711000000e+01 1.533000000e+01 -1.051000000e+01
    123       1     123       4   -1.0000 3.585000000e+01 1.194000000e+01 -1.173000000e+01
    124       1     124      10    0.0000 3.633000000e+01 1.290000000e+01 -1.537000000e+01
    125       1     125       7    0.0000 3.977000000e+01 1.429000000e+01 -1.447000000e+01
    126       1     126      11    0.0000 4.083000000e+01 1.116000000e+01 -1.263000000e+01
    127       1     127       1    0.0000 3.973000000e+01 8.950000000e+00 -1.552000000e+01
    128       1     128       2    1.0000 4.160000000e+01 1.105000000e+01 -1.808000000e+01
    129       1     129       2    1.0000 4.475000000e+01 1.114000000e+01 -1.594000000e+01
    130       1     130      10    0.0000 4.479000000e+01 7.340000000e+00 -1.556000000e+01
    131       1     131       2    1.0000 4.409000000e+01 6.880000000e+00 -1.925000000e+01
    132       1     132       8    0.0000 4.716000000e+01 8.980000000e+00 -1.999000000e+01
    133       1     133       6   -1.0000 4.514000000e+01 1.174000000e+01 -2.164000000e+01
    134       1     134       2    1.0000 4.595000000e+01 1.430000000e+01 -1.894000000e+01
    135       1     135       1    0.0000 4.899000000e+01 1.243000000e+01 -1.771000000e+01
    136       2     136      16    0.0000 7.850000000e+00 4.557000000e+01 -2.269000000e+01
    137       2     137       8    0.0000 9.730000000e+00 4.373000000e+01 -1.997000000e+01
    138       2     138       2    1.0000 6.930000000e+00 4.143000000e+01 -1.882000000e+01
    139       2     139       8    0.0000 7.140000000e+00 3.816000000e+01 -1.693000000e+01
    140       2     140      12    1.0000 1.011000000e+01 3.648000000e+01 -1.530000000e+01
    141       2     141       8    0.0000 9.480000000e+00 3.302000000e+01 -1.668000000e+01
    142       2     142       8    0.0000 6.090000000e+00 3.178000000e+01 -1.782000000e+01
    143       2     143      12    1.0000 3.420000000e+00 3.248000000e+01 -2.043000000e+01
    144       2     144       8    0.0000 3.240000000e+00 3.597000000e+01 -2.192000000e+01
    145       2     145      11    0.0000 5.780000000e+00 3.712000000e+01 -2.451000000e+01
    146       2     146       8    0.0000 9.330000000e+00 3.843000000e+01 -2.441000000e+01
    147       2     147      12    1.0000 9.810000000e+00 3.670000000e+01 -2.106000000e+01
    148       2     148       8    0.0000 1.295000000e+01 3.470000000e+01 -2.030000000e+01
    149       2     149       8    0.0000 1.413000000e+01 3.237000000e+01 -2.304000000e+01
    150       2     150       1    0.0000 1.360000000e+01 3.448000000e+01 -2.614000000e+01
    151       2     151      12    1.0000 1.668000000e+01 3.467000000e+01 -2.837000000e+01
    152       2     152       2    1.0000 1.657000000e+01 3.483000000e+01 -3.217000000e+01
    153       2     153       9    0.0000 1.969000000e+01 3.432000000e+01 -3.427000000e+01
    154       2     154       2    1.0000 2.160000000e+01 3.131000000e+01 -3.550000000e+01
    155       2     155      12    1.0000 2.534000000e+01 3.131000000e+01 -3.500000000e+01
    156       2     156      20    0.0000 2.775000000e+01 3.326000000e+01 -3.716000000e+01
    157       2     157      11    0.0000 2.973000000e+01 3.352000000e+01 -3.392000000e+01
    158       2     158       2    1.0000 2.770000000e+01 3.241000000e+01 -3.089000000e+01
    159       2     159       4   -1.0000 2.714000000e+01 2.905000000e+01 -2.915000000e+01
    160       2     160       3    0.0000 2.911000000e+01 2.652000000e+01 -3.120000000e+01
    161       2     161      10    0.0000 3.090000000e+01 2.462000000e+01 -2.841000000e+01
    162       2     162       7    0.0000 2.805000000e+01 2.599000000e+01 -2.633000000e+01
    163       2     163       8    0.0000 2.584000000e+01 2.439000000e+01 -2.893000000e+01
    164       2     164      10    0.0000 2.665000000e+01 2.094000000e+01 -2.753000000e+01
    165       2     165      17    0.0000 2.375000000e+01 2.113000000e+01 -2.512000000e+01
    166       2     166      12    1.0000 2.328000000e+01 2.002000000e+01 -2.155000000e+01
    167       2     167      15    0.0000 2.061000000e+01 1.759000000e+01 -2.283000000e+01
    168       2     168       1    0.0000 2.288000000e+01 1.601000000e+01 -2.543000000e+01
    169       2     169      10    0.0000 2.562000000e+01 1.557000000e+01 -2.279000000e+01
    170       2     170       2    1.0000 2.311000000e+01 1.402000000e+01 -2.039000000e+01
    171       2     171       2    1.0000 2.209000000e+01 1.160000000e+01 -2.315000000e+01
    172       2     172      11    0.0000 2.573000000e+01 1.065000000e+01 -2.380000000e+01
    173       2     173       1    0.0000 2.617000000e+01 1.008000000e+01 -2.007000000e+01
    174       2     174       2    1.0000 2.303000000e+01 7.880000000e+00 -1.995000000e+01
    175       2     175       2    1.0000 2.436000000e+01 5.690000000e+00 -2.273000000e+01
    176       2     176       8    0.0000 2.752000000e+01 5.580000000e+00 -2.059000000e+01
    177       2     177       8    0.0000 2.543000000e+01 4.270000000e+00 -1.764000000e+01
    178       2     178      20    0.0000 2.544000000e+01 7.460000000e+00 -1.558000000e+01
    179       2     179      12    1.0000 2.245000000e+01 8.030000000e+00 -1.323000000e+01
    180       2     180       2    1.0000 2.321000000e+01 1.138000000e+01 -1.159000000e+01
    181       2     181      10    0.0000 2.516000000e+01 1.434000000e+01 -1.292000000e+01
    182       2     182      16    0.0000 2.686000000e+01 1.729000000e+01 -1.124000000e+01
    183       2     183       8    0.0000 2.598000000e+01 2.072000000e+01 -1.258000000e+01
    184       2     184      11    0.0000 2.964000000e+01 2.131000000e+01 -1.340000000e+01
    185       2     185      10    0.0000 2.991000000e+01 1.825000000e+01 -1.567000000e+01
    186       2     186      19    0.0000 2.853000000e+01 2.005000000e+01 -1.870000000e+01
    187       2     187       6   -1.0000 3.126000000e+01 2.262000000e+01 -1.904000000e+01
    188       2     188       6   -1.0000 3.384000000e+01 2.001000000e+01 -1.819000000e+01
    189       2     189      17    0.0000 3.254000000e+01 1.777000000e+01 -2.097000000e+01
    190       2     190       2    1.0000 3.262000000e+01 2.059000000e+01 -2.351000000e+01
    191       2     191       8    0.0000 3.626000000e+01 2.123000000e+01 -2.265000000e+01
    192       2     192      20    0.0000 3.715000000e+01 1.758000000e+01 -2.308000000e+01
    193       2     193      11    0.0000 3.520000000e+01 1.728000000e+01 -2.631000000e+01
    194       2     194      12    1.0000 3.692000000e+01 2.036000000e+01 -2.773000000e+01
    195       2     195      20    0.0000 4.037000000e+01 1.886000000e+01 -2.695000000e+01
    196       2     196      14    0.0000 3.941000000e+01 1.557000000e+01 -2.858000000e+01
    197       2     197      11    0.0000 3.823000000e+01 1.732000000e+01 -3.176000000e+01
    198       2     198       6   -1.0000 4.119000000e+01 1.968000000e+01 -3.188000000e+01
    199       2     199       3    0.0000 4.347000000e+01 1.663000000e+01 -3.174000000e+01
    200       2     200      20    0.0000 4.170000000e+01 1.457000000e+01 -3.433000000e+01
    201       2     201      10    0.0000 4.093000000e+01 1.749000000e+01 -3.668000000e+01
    202       2     202       2    1.0000 4.449000000e+01 1.879000000e+01 -3.651000000e+01
    203       2     203       4   -1.0000 4.579000000e+01 1.548000000e+01 -3.789000000e+01
    204       2     204       1    0.0000 4.300000000e+01 1.508000000e+01 -4.043000000e+01
    205       2     205      20    0.0000 4.373000000e+01 1.855000000e+01 -4.181000000e+01
    206       2     206      17    0.0000 4.745000000e+01 1.763000000e+01 -4.192000000e+01
    207       2     207      19    0.0000 4.653000000e+01 1.473000000e+01 -4.419000000e+01
    208       2     208      17    0.0000 4.424000000e+01 1.702000000e+01 -4.624000000e+01
    209       2     209       6   -1.0000 4.702000000e+01 1.954000000e+01 -4.683000000e+01
    210       2     210       9    0.0000 4.959000000e+01 1.688000000e+01 -4.763000000e+01
    211       2     211       1    0.0000 4.724000000e+01 1.567000000e+01 -5.035000000e+01
    212       2     212      12    1.0000 4.701000000e+01 1.922000000e+01 -5.167000000e+01
    213       2     213       2    1.0000 4.322000000e+01 1.906000000e+01 -5.113000000e+01
    214       2     214      12    1.0000 4.081000000e+01 2.172000000e+01 -4.994000000e+01
    215       2     215      17    0.0000 3.824000000e+01 1.916000000e+01 -4.880000000e+01
    216       2     216      20    0.0000 3.857000000e+01 1.708000000e+01 -4.558000000e+01
    217       2     217      17    0.0000 3.761000000e+01 1.352000000e+01 -4.649000000e+01
    218       2     218       1    0.0000 3.627000000e+01 1.070000000e+01 -4.438000000e+01
    219       2     219      13    0.0000 3.960000000e+01 8.890000000e+00 -4.503000000e+01
    220       2     220       4   -1.0000 4.156000000e+01 1.188000000e+01 -4.365000000e+01
    221       2     221      20    0.0000 3.947000000e+01 1.148000000e+01 -4.049000000e+01
    222       2     222      20    0.0000 3.983000000e+01 7.660000000e+00 -4.045000000e+01
    223       2     223      19    0.0000 4.363000000e+01 7.950000000e+00 -4.075000000e+01
    224       2     224       1    0.0000 4.379000000e+01 1.065000000e+01 -3.808000000e+01
    225       2     225      11    0.0000 4.168000000e+01 8.510000000e+00 -3.572000000e+01
    226       2     226      12    1.0000 4.380000000e+01 5.430000000e+00 -3.633000000e+01
    227       2     227       2    1.0000 4.710000000e+01 7.140000000e+00 -3.552000000e+01
    228       2     228       7    0.0000 4.553000000e+01 8.510000000e+00 -3.230000000e+01
    229       2     229       8    0.0000 4.469000000e+01 4.910000000e+00 -3.128000000e+01
    230       2     230       2    1.0000 4.098000000e+01 5.290000000e+00 -3.201000000e+01
    231       2     231      17    0.0000 4.046000000e+01 3.120000000e+00 -3.512000000e+01
    232       2     232      11    0.0000 3.697000000e+01 3.640000000e+00 -3.649000000e+01
    233       2     233      19    0.0000 3.523000000e+01 1.090000000e+00 -3.872000000e+01
    234       2     234       8    0.0000 3.250000000e+01 1.980000000e+00 -4.118000000e+01
    235       2     235      14    0.0000 3.397000000e+01 4.860000000e+00 -4.315000000e+01
    236       2     236       8    0.0000 3.655000000e+01 3.390000000e+00 -4.552000000e+01
    237       2     237       8    0.0000 3.448000000e+01 3.360000000e+00 -4.869000000e+01
    238       3     238      16    0.0000 7.815000000e+01 1.445000000e+01 -7.231000000e+01
    239       3     239       8    0.0000 7.891000000e+01 1.109000000e+01 -7.388000000e+01
    240       3     240       2    1.0000 8.092000000e+01 8.890000000e+00 -7.151000000e+01
    241       3     241       8    0.0000 8.441000000e+01 9.380000000e+00 -7.292000000e+01
    242       3     242      12    1.0000 8.657000000e+01 1.061000000e+01 -7.006000000e+01
    243       3     243       7    0.0000 8.646000000e+01 1.320000000e+01 -6.728000000e+01
    244       3     244       8    0.0000 8.893000000e+01 1.514000000e+01 -6.515000000e+01
    245       3     245       8    0.0000 8.903000000e+01 1.736000000e+01 -6.209000000e+01
    246       3     246      12    1.0000 8.717000000e+01 1.728000000e+01 -5.878000000e+01
    247       3     247      17    0.0000 8.519000000e+01 2.025000000e+01 -5.750000000e+01
    248       3     248       2    1.0000 8.182000000e+01 1.869000000e+01 -5.671000000e+01
    249       3     249       1    0.0000 8.331000000e+01 1.685000000e+01 -5.375000000e+01
    250       3     250      12    1.0000 8.485000000e+01 1.336000000e+01 -5.385000000e+01
    251       3     251       1    0.0000 8.569000000e+01 1.401000000e+01 -5.021000000e+01
    252       3     252      12    1.0000 8.246000000e+01 1.589000000e+01 -4.952000000e+01
    253       3     253      17    0.0000 7.981000000e+01 1.391000000e+01 -4.766000000e+01
    254       3     254       2    1.0000 7.614000000e+01 1.463000000e+01 -4.817000000e+01
    255       3     255      16    0.0000 7.617000000e+01 1.547000000e+01 -4.445000000e+01
    256       3     256      16    0.0000 7.875000000e+01 1.826000000e+01 -4.497000000e+01
    257       3     257       2    1.0000 7.680000000e+01 1.933000000e+01 -4.803000000e+01
    258       3     258       1    0.0000 7.361000000e+01 1.964000000e+01 -4.593000000e+01
    259       3     259       8    0.0000 7.545000000e+01 2.127000000e+01 -4.299000000e+01
    260       3     260      11    0.0000 7.480000000e+01 1.830000000e+01 -4.071000000e+01
    261       3     261       7    0.0000 7.657000000e+01 1.624000000e+01 -3.808000000e+01
    262       3     262      14    0.0000 7.426000000e+01 1.320000000e+01 -3.841000000e+01
    263       3     263      15    0.0000 7.501000000e+01 1.085000000e+01 -4.137000000e+01
    264       3     264      20    0.0000 7.290000000e+01 1.148000000e+01 -4.446000000e+01
    265       3     265       8    0.0000 7.434000000e+01 8.470000000e+00 -4.626000000e+01
    266       3     266       2    1.0000 7.346000000e+01 6.080000000e+00 -4.342000000e+01
    267       3     267      20    0.0000 6.998000000e+01 7.500000000e+00 -4.299000000e+01
    268       3     268       9    0.0000 6.940000000e+01 7.060000000e+00 -4.677000000e+01
    269       3     269       2    1.0000 7.052000000e+01 3.430000000e+00 -4.659000000e+01
    270       3     270      11    0.0000 6.841000000e+01 2.670000000e+00 -4.353000000e+01
    271       3     271      11    0.0000 6.533000000e+01 4.230000000e+00 -4.522000000e+01
    272       3     272       2    1.0000 6.591000000e+01 1.950000000e+00 -4.822000000e+01
    273       3     273      12    1.0000 6.660000000e+01 -1.130000000e+00 -4.606000000e+01
    274       3     274       8    0.0000 6.340000000e+01 -7.200000000e-01 -4.403000000e+01
    275       3     275       3    0.0000 6.085000000e+01 -1.190000000e+00 -4.681000000e+01
    276       3     276      19    0.0000 5.907000000e+01 2.070000000e+00 -4.627000000e+01
    277       3     277       1    0.0000 5.846000000e+01 2.770000000e+00 -4.998000000e+01
    278       3     278       6   -1.0000 5.966000000e+01 1.600000000e+00 -5.336000000e+01
    279       3     279       2    1.0000 6.163000000e+01 4.830000000e+00 -5.377000000e+01
    280       3     280      20    0.0000 6.338000000e+01 7.330000000e+00 -5.146000000e+01
    281       3     281       8    0.0000 6.411000000e+01 1.079000000e+01 -5.279000000e+01
    282       3     282       1    0.0000 6.750000000e+01 1.244000000e+01 -5.222000000e+01
    283       3     283       8    0.0000 6.609000000e+01 1.506000000e+01 -4.987000000e+01
    284       3     284       1    0.0000 6.430000000e+01 1.262000000e+01 -4.754000000e+01
    285       3     285      15    0.0000 6.739000000e+01 1.135000000e+01 -4.570000000e+01
    286       3     286      20    0.0000 6.871000000e+01 1.489000000e+01 -4.546000000e+01
    287       3     287      19    0.0000 6.553000000e+01 1.616000000e+01 -4.385000000e+01
    288       3     288      11    0.0000 6.530000000e+01 1.312000000e+01 -4.158000000e+01
    289       3     289       1    0.0000 6.896000000e+01 1.332000000e+01 -4.046000000e+01
    290       3     290       1    0.0000 6.849000000e+01 1.706000000e+01 -3.968000000e+01
    291       3     291      20    0.0000 6.540000000e+01 1.625000000e+01 -3.754000000e+01
    292       3     292      11    0.0000 6.715000000e+01 1.343000000e+01 -3.564000000e+01
    293       3     293       6   -1.0000 7.013000000e+01 1.569000000e+01 -3.505000000e+01
    294       3     294      19    0.0000 6.786000000e+01 1.845000000e+01 -3.381000000e+01
    295       3     295      11    0.0000 6.601000000e+01 1.619000000e+01 -3.133000000e+01
    296       3     296      17    0.0000 6.930000000e+01 1.476000000e+01 -3.013000000e+01
    297       3     297       1    0.0000 7.059000000e+01 1.829000000e+01 -2.946000000e+01
    298       3     298       6   -1.0000 6.743000000e+01 1.916000000e+01 -2.752000000e+01
    299       3     299      10    0.0000 6.758000000e+01 1.615000000e+01 -2.523000000e+01
    300       3     300      11    0.0000 7.132000000e+01 1.651000000e+01 -2.468000000e+01
    301       3     301       6   -1.0000 7.099000000e+01 2.022000000e+01 -2.390000000e+01
    302       3     302      11    0.0000 6.839000000e+01 1.955000000e+01 -2.118000000e+01
    303       3     303       1    0.0000 7.019000000e+01 1.639000000e+01 -1.994000000e+01
    304       3     304       8    0.0000 7.353000000e+01 1.817000000e+01 -1.957000000e+01
    305       3     305       3    0.0000 7.162000000e+01 2.080000000e+01 -1.759000000e+01
    306       3     306       1    0.0000 7.023000000e+01 1.807000000e+01 -1.528000000e+01
    307       3     307       1    0.0000 7.375000000e+01 1.664000000e+01 -1.480000000e+01
    308       3     308       2    1.0000 7.506000000e+01 2.014000000e+01 -1.396000000e+01
    309       3     309       4   -1.0000 7.214000000e+01 2.072000000e+01 -1.154000000e+01
    310       3     310       3    0.0000 7.315000000e+01 1.748000000e+01 -9.770000000e+00
    311       3     311      12    1.0000 7.682000000e+01 1.855000000e+01 -9.750000000e+00
    312       3     312      12    1.0000 7.789000000e+01 1.589000000e+01 -1.226000000e+01
    313       3     313      17    0.0000 7.986000000e+01 1.623000000e+01 -1.546000000e+01
    314       3     314       2    1.0000 7.886000000e+01 1.293000000e+01 -1.699000000e+01
    315       3     315      10    0.0000 7.533000000e+01 1.238000000e+01 -1.829000000e+01
    316       3     316      10    0.0000 7.381000000e+01 9.130000000e+00 -1.701000000e+01
    317       3     317      15    0.0000 7.029000000e+01 7.640000000e+00 -1.763000000e+01
    318       3     318       2    1.0000 6.891000000e+01 9.490000000e+00 -1.465000000e+01
    319       3     319       9    0.0000 6.974000000e+01 1.287000000e+01 -1.626000000e+01
    320       3     320      11    0.0000 6.808000000e+01 1.185000000e+01 -1.952000000e+01
    321       3     321       7    0.0000 6.493000000e+01 1.086000000e+01 -1.757000000e+01
    322       3     322      11    0.0000 6.495000000e+01 1.411000000e+01 -1.557000000e+01